LAMMPS (15 Aug 2014)
lattice sc 0.8
Lattice spacing in x,y,z = 1.07722 1.07722 1.07722

region box block 0 10 0 10 0 10

create_box 1 box
Created orthogonal box = (0 0 0) to (10.7722 10.7722 10.7722)
  1 by 1 by 3 MPI processor grid

create_atoms 1 box
Created 1000 atoms

mass 1 1.0

pair_style lj/cut/opt 3.0

pair_coeff 1 1 1.0 1.0

neighbor 2.0 bin

velocity all create 1.5 12345 dist gaussian rot yes mom yes

fix nve all nve

thermo_style custom time etotal temp press

thermo 10

variable timestep equal 0.001
variable n_steps equal floor(100/${timestep})
variable n_steps equal floor(100/0.001)

timestep ${timestep}
timestep 0.001
run ${n_steps}
run 100000
Memory usage per processor = 2.65604 Mbytes
Time TotEng Temp Press 
           0   -3.1588219          1.5   0.67735616 
        0.01   -3.1589412    1.4655431   0.86974936 
        0.02   -3.1616196     1.360996    1.4414151 
        0.03   -3.1645362    1.1905036    2.3549467 
        0.04    -3.166286   0.98647814    3.4312754 
        0.05   -3.1675964   0.82303464    4.2992874 
        0.06   -3.1686161   0.76329236    4.6499457 
        0.07    -3.169489   0.79850638    4.5154965 
        0.08   -3.1703158   0.87693388    4.1405727 
        0.09   -3.1712003   0.95530651    3.7413277 
         0.1   -3.1721682    1.0146909    3.4223596 
        0.11   -3.1732121    1.0538302    3.2008441 
        0.12   -3.1742393    1.0796832    3.0496598 
        0.13   -3.1751818    1.1005511    2.9311343 
        0.14   -3.1761075    1.1222008    2.8173236 
        0.15   -3.1769422    1.1460513    2.7001315 
        0.16   -3.1778053    1.1710704    2.5830594 
        0.17   -3.1786043    1.1950277    2.4759567 
        0.18   -3.1791963    1.2154468    2.3897536 
        0.19   -3.1797777     1.233276    2.3194305 
         0.2   -3.1804108    1.2494412    2.2601568 
        0.21   -3.1808656    1.2622871    2.2195408 
        0.22   -3.1813679    1.2682432    2.2132552 
        0.23    -3.181902    1.2656329    2.2480572 
        0.24   -3.1824055     1.259004    2.3017209 
        0.25   -3.1829481    1.2554579    2.3400784 
        0.26   -3.1832149    1.2560578    2.3577176 
        0.27    -3.183228     1.257315    2.3709524 
        0.28   -3.1834874    1.2566137     2.392811 
        0.29   -3.1835357     1.251493    2.4372356 
         0.3   -3.1836447    1.2389672    2.5178824 
        0.31   -3.1835083    1.2212518    2.6237323 
        0.32   -3.1834766    1.2050529    2.7201529 
        0.33   -3.1834659    1.1968651    2.7731107 
        0.34   -3.1834053    1.2023129    2.7545416 
        0.35   -3.1835677    1.2203355    2.6699157 
        0.36   -3.1833906    1.2408316    2.5701827 
        0.37   -3.1834599    1.2530657    2.5080073 
        0.38     -3.18348    1.2534956    2.5025409 
        0.39   -3.1834874    1.2491162    2.5219584 
         0.4   -3.1837287    1.2492549    2.5221916 
        0.41   -3.1838262    1.2553895     2.495971 
        0.42   -3.1838007    1.2635079    2.4620386 
        0.43   -3.1840605    1.2667813    2.4518747 
        0.44   -3.1841194    1.2629805    2.4770794 
        0.45   -3.1841964    1.2566974    2.5166913 
        0.46   -3.1840792    1.2484404     2.567198 
        0.47   -3.1841235    1.2399547    2.6183683 
        0.48    -3.183983    1.2353168    2.6513074 
        0.49   -3.1838872    1.2330752    2.6714597 
         0.5   -3.1838998    1.2313487    2.6868775 
        0.51   -3.1839927     1.233535    2.6824804 
        0.52   -3.1841066    1.2402762    2.6556565 
        0.53   -3.1840143    1.2480342    2.6233646 
        0.54   -3.1838699    1.2549553    2.5955072 
        0.55   -3.1836232    1.2573017    2.5906711 
        0.56   -3.1837065     1.251487    2.6247718 
        0.57   -3.1837233    1.2432514    2.6719951 
        0.58   -3.1839013    1.2419859    2.6885625 
        0.59   -3.1838025    1.2425439    2.6955978 
         0.6   -3.1838023    1.2400278     2.712373 
        0.61   -3.1839108    1.2391328    2.7164348 
        0.62   -3.1839471     1.245723    2.6810705 
        0.63   -3.1839715    1.2597323    2.6078743 
        0.64   -3.1838016    1.2728824    2.5374214 
        0.65   -3.1839521    1.2789627     2.500426 
        0.66   -3.1838672    1.2794585    2.4939893 
        0.67   -3.1838853    1.2763895    2.5097581 
        0.68   -3.1840919     1.268712    2.5516265 
        0.69   -3.1841278     1.257958    2.6112692 
         0.7   -3.1840199    1.2474192     2.670549 
        0.71     -3.18391    1.2424327    2.7018682 
        0.72   -3.1838937    1.2483101    2.6798174 
        0.73   -3.1841183    1.2598653    2.6283346 
        0.74   -3.1839828    1.2664781     2.598374 
        0.75   -3.1840997    1.2650602    2.6049792 
        0.76   -3.1841039    1.2590399    2.6336005 
        0.77   -3.1841851    1.2544731     2.656164 
        0.78   -3.1840619    1.2524812    2.6676204 
        0.79   -3.1842098    1.2509074    2.6773133 
         0.8   -3.1841966    1.2489499     2.690751 
        0.81   -3.1843113     1.244052    2.7193637 
        0.82   -3.1842536    1.2367802    2.7604189 
        0.83   -3.1842086      1.23029    2.7975296 
        0.84   -3.1841625    1.2267993    2.8181345 
        0.85   -3.1840593    1.2296918    2.8053711 
        0.86    -3.184097    1.2421523    2.7450411 
        0.87   -3.1841718    1.2582357    2.6662005 
        0.88   -3.1840478    1.2678302    2.6177063 
        0.89   -3.1842073    1.2679532     2.614301 
         0.9   -3.1842715    1.2634157    2.6349067 
        0.91   -3.1842943    1.2614961    2.6459986 
        0.92   -3.1843437     1.262771    2.6448285 
        0.93   -3.1845458    1.2622626    2.6543004 
        0.94   -3.1846103    1.2558126    2.6935925 
        0.95   -3.1846311    1.2454369    2.7521364 
        0.96   -3.1847135     1.237881    2.7976242 
        0.97   -3.1848048    1.2337406      2.82544 
        0.98     -3.18495    1.2264996    2.8623008 
        0.99   -3.1847939    1.2162454    2.9060178 
           1   -3.1848038    1.2145247    2.9033749 
        1.01   -3.1848189    1.2238158    2.8440713 
        1.02   -3.1850988    1.2387578    2.7548673 
        1.03    -3.185044    1.2515151    2.6766818 
        1.04   -3.1847406    1.2555379    2.6429458 
        1.05   -3.1845696    1.2512328    2.6535122 
        1.06   -3.1846886    1.2405513    2.6990161 
        1.07   -3.1846364    1.2273552     2.760843 
        1.08   -3.1845181    1.2201171    2.7988982 
        1.09   -3.1843672    1.2215937     2.799745 
         1.1   -3.1843072    1.2244097    2.7960196 
        1.11   -3.1845327    1.2231776    2.8114525 
        1.12   -3.1844975    1.2212489    2.8306504 
        1.13    -3.184548    1.2218205    2.8354409 
        1.14   -3.1845775     1.228976    2.8050943 
        1.15   -3.1844694    1.2448474    2.7305676 
        1.16   -3.1845047    1.2624224    2.6457127 
        1.17   -3.1847385    1.2730804    2.5933404 
        1.18   -3.1845347    1.2724242    2.5972512 
        1.19   -3.1847101    1.2614627    2.6514685 
         1.2   -3.1845861    1.2468191    2.7242697 
        1.21   -3.1843161    1.2378998     2.769686 
        1.22   -3.1843295    1.2372363    2.7736523 
        1.23   -3.1841339    1.2422617    2.7490222 
        1.24   -3.1841971    1.2501907    2.7097953 
        1.25   -3.1842787    1.2566635    2.6782727 
        1.26   -3.1843222    1.2562922    2.6798132 
        1.27   -3.1845615    1.2490837    2.7135542 
        1.28   -3.1845278    1.2420364    2.7476068 
        1.29   -3.1846623    1.2415093    2.7520058 
         1.3   -3.1846588     1.245332     2.737094 
        1.31   -3.1846488    1.2468504    2.7324196 
        1.32   -3.1842443    1.2450431    2.7419255 
        1.33   -3.1840551    1.2444468    2.7420201 
        1.34   -3.1840599    1.2482604     2.716526 
        1.35   -3.1844335    1.2574502    2.6611962 
        1.36   -3.1844671    1.2700283    2.5889257 
        1.37   -3.1842398     1.279895    2.5305954 
        1.38   -3.1841613    1.2838586    2.5027303 
        1.39   -3.1840068    1.2833125    2.5004249 
         1.4    -3.184045      1.28013    2.5141933 
        1.41   -3.1841589    1.2754118    2.5381594 
        1.42   -3.1841558    1.2701778    2.5673075 
        1.43   -3.1840686    1.2629246    2.6072361 
        1.44   -3.1841446    1.2540333    2.6543167 
        1.45    -3.184101    1.2488432    2.6841232 
        1.46   -3.1841087    1.2473253    2.6960382 
        1.47   -3.1841219    1.2437869    2.7150933 
        1.48   -3.1840131    1.2405179    2.7311389 
        1.49   -3.1839267    1.2418003    2.7246258 
         1.5    -3.184123    1.2476113    2.6952071 
        1.51   -3.1841232    1.2583073    2.6430399 
        1.52   -3.1841746    1.2721938    2.5773212 
        1.53    -3.184091    1.2814837    2.5354192 
        1.54   -3.1841598    1.2812646    2.5403649 
        1.55   -3.1842973    1.2733696    2.5834306 
        1.56   -3.1842144    1.2629552    2.6391358 
        1.57   -3.1839571    1.2558925    2.6783117 
        1.58   -3.1839153    1.2528564    2.6957794 
        1.59   -3.1837858    1.2518861    2.7011017 
         1.6   -3.1836457    1.2505504    2.7064395 
        1.61   -3.1837336    1.2466289    2.7224208 
        1.62   -3.1839231    1.2400474    2.7492484 
        1.63   -3.1839261    1.2335878      2.77327 
        1.64    -3.183829     1.230394    2.7784399 
        1.65   -3.1838455    1.2303992    2.7637047 
        1.66   -3.1837525    1.2345572    2.7252628 
        1.67   -3.1838408    1.2467122    2.6467315 
        1.68   -3.1839903    1.2649989    2.5392311 
        1.69   -3.1840598    1.2817713    2.4411449 
         1.7    -3.184053    1.2919803    2.3792376 
        1.71   -3.1840412    1.2957558    2.3555772 
        1.72   -3.1840765    1.2937141    2.3679267 
        1.73   -3.1843071     1.284247    2.4217169 
        1.74   -3.1843347    1.2683625    2.5099209 
        1.75   -3.1841708    1.2521089    2.6015949 
        1.76   -3.1842674    1.2418879    2.6641754 
        1.77   -3.1844267    1.2409042    2.6827364 
        1.78   -3.1842633    1.2447161    2.6788973 
        1.79   -3.1838913    1.2436652    2.6968699 
         1.8   -3.1838905    1.2369762    2.7396144 
        1.81   -3.1839432    1.2300306    2.7824833 
        1.82   -3.1840611    1.2254965    2.8114178 
        1.83   -3.1840405    1.2253193    2.8168192 
        1.84   -3.1837924    1.2278459    2.8062524 
        1.85   -3.1837545    1.2294778    2.7960422 
        1.86   -3.1838852    1.2294024    2.7912026 
        1.87   -3.1839148    1.2289197     2.787307 
        1.88   -3.1837498    1.2308025      2.77269 
        1.89   -3.1838096    1.2350533    2.7467421 
         1.9   -3.1838818    1.2381587    2.7246453 
        1.91   -3.1839586    1.2435089    2.6908174 
        1.92    -3.184026    1.2549445    2.6288308 
        1.93   -3.1841743    1.2657619    2.5700053 
        1.94   -3.1841825    1.2698268    2.5439925 
        1.95   -3.1841834     1.268681    2.5445733 
        1.96   -3.1843898     1.266097    2.5541101 
        1.97   -3.1843466    1.2637068    2.5652091 
        1.98   -3.1844398    1.2609039    2.5789376 
        1.99   -3.1842447    1.2579672    2.5935649 
           2   -3.1843221    1.2575873    2.5955962 
        2.01   -3.1844284    1.2588729    2.5898419 
        2.02     -3.18431    1.2552873    2.6068958 
        2.03   -3.1842779    1.2447471    2.6565018 
        2.04   -3.1842353    1.2325816    2.7146756 
        2.05   -3.1844335    1.2273187    2.7420105 
        2.06   -3.1842355    1.2288267    2.7393552 
        2.07   -3.1843673    1.2326517    2.7255942 
        2.08   -3.1842384    1.2374527    2.7084917 
        2.09   -3.1841248    1.2408909    2.6989237 
         2.1   -3.1841639    1.2405086     2.709034 
        2.11   -3.1840848    1.2317965    2.7593374 
        2.12   -3.1839131    1.2186638    2.8302131 
        2.13   -3.1837997    1.2126372    2.8674138 
        2.14   -3.1838454    1.2136458    2.8692853 
        2.15   -3.1840792    1.2151091    2.8651506 
        2.16   -3.1838262    1.2172061    2.8565727 
        2.17   -3.1839958    1.2195483    2.8444931 
        2.18   -3.1840727    1.2179046    2.8475445 
        2.19   -3.1839805    1.2163217    2.8458255 
         2.2   -3.1840004    1.2231485    2.7999302 
        2.21    -3.184127    1.2397605    2.7041047 
        2.22   -3.1842641    1.2599202    2.5894101 
        2.23   -3.1842542    1.2768952    2.4903172 
        2.24   -3.1844634    1.2879937    2.4217627 
        2.25   -3.1845281    1.2918742    2.3922451 
        2.26   -3.1846522    1.2900049    2.3953144 
        2.27   -3.1849096    1.2884379    2.4036946 
        2.28   -3.1848015    1.2874613    2.4164056 
        2.29   -3.1848016    1.2816787    2.4562085 
         2.3   -3.1845485    1.2705879    2.5253127 
        2.31   -3.1846114    1.2556964    2.6141532 
        2.32   -3.1846104    1.2406572    2.7041751 
        2.33    -3.184588    1.2320669    2.7636232 
        2.34   -3.1845462    1.2312407    2.7856695 
        2.35   -3.1844707    1.2327417    2.7946717 
        2.36   -3.1845503    1.2346021    2.8000889 
        2.37   -3.1844501    1.2340295    2.8149091 
        2.38   -3.1845184    1.2285716     2.847423 
        2.39   -3.1844999    1.2260329    2.8606711 
         2.4   -3.1843788    1.2327668    2.8254866 
        2.41   -3.1843902      1.24353    2.7666714 
        2.42   -3.1841831     1.251368    2.7190058 
        2.43   -3.1841218    1.2541393    2.6935868 
        2.44    -3.183941    1.2533641    2.6844159 
        2.45   -3.1838128    1.2544359    2.6674998 
        2.46   -3.1839511    1.2593105    2.6350582 
        2.47   -3.1838937    1.2623476    2.6144604 
        2.48   -3.1840337    1.2605395    2.6193499 
        2.49   -3.1840242    1.2564013    2.6383234 
         2.5     -3.18431    1.2541682    2.6500448 
        2.51   -3.1841732    1.2534751    2.6558893 
        2.52   -3.1843375    1.2504404    2.6711616 
        2.53    -3.184427    1.2485055    2.6807631 
        2.54   -3.1842399    1.2502288    2.6723059 
        2.55   -3.1842607    1.2553013     2.645285 
        2.56   -3.1841812    1.2630422    2.6037996 
        2.57   -3.1843267     1.270206    2.5638515 
        2.58    -3.184147    1.2732747    2.5444215 
        2.59   -3.1842495    1.2709452    2.5517006 
         2.6   -3.1842714    1.2653631     2.576557 
        2.61   -3.1842242    1.2621319    2.5934061 
        2.62   -3.1843175    1.2642962    2.5885024 
        2.63   -3.1843854      1.26719    2.5839887 
        2.64   -3.1843538    1.2642566    2.6100164 
        2.65   -3.1844534    1.2549028    2.6679699 
        2.66   -3.1841917    1.2443724    2.7327339 
        2.67    -3.184359    1.2370575    2.7811014 
        2.68   -3.1843597    1.2315192    2.8189395 
        2.69   -3.1842604    1.2274772    2.8465972 
         2.7   -3.1842221    1.2259472    2.8584145 
        2.71   -3.1843168    1.2272975    2.8522436 
        2.72    -3.184188    1.2306327     2.833231 
        2.73   -3.1843835    1.2340923    2.8097533 
        2.74   -3.1843733    1.2386532    2.7793401 
        2.75   -3.1842916    1.2435206    2.7458467 
        2.76   -3.1843661     1.247955    2.7129426 
        2.77   -3.1843294    1.2532682    2.6767958 
        2.78   -3.1843616    1.2576793    2.6468376 
        2.79   -3.1844914    1.2571044    2.6419955 
         2.8   -3.1842757    1.2527086    2.6573901 
        2.81   -3.1841858     1.247079    2.6791302 
        2.82   -3.1842744    1.2434437    2.6909314 
        2.83   -3.1842927    1.2456618    2.6751112 
        2.84   -3.1843057    1.2524847    2.6375582 
        2.85    -3.184372    1.2608021    2.5944515 
        2.86   -3.1842709    1.2645604    2.5757572 
        2.87   -3.1841902    1.2610468    2.5944771 
        2.88   -3.1840147    1.2531724    2.6368057 
        2.89   -3.1841486    1.2430523    2.6890771 
         2.9   -3.1839779    1.2397737    2.7084942 
        2.91   -3.1839986    1.2531376    2.6507315 
        2.92   -3.1840922     1.273888    2.5609352 
        2.93   -3.1840141    1.2845447    2.5228361 
        2.94   -3.1842594    1.2748264    2.5841362 
        2.95   -3.1844794    1.2476317    2.7293181 
        2.96   -3.1843556    1.2196768    2.8772456 
        2.97   -3.1844303    1.2059414    2.9536586 
        2.98   -3.1844678     1.204921    2.9626891 
        2.99   -3.1843549    1.2076867    2.9451336 
           3   -3.1844555    1.2115436    2.9148549 
        3.01   -3.1844112    1.2190348    2.8635628 
        3.02   -3.1843567    1.2302956    2.7924388 
        3.03   -3.1844494    1.2442894    2.7081817 
        3.04    -3.184401    1.2597248    2.6204407 
        3.05   -3.1842328    1.2694761    2.5642252 
        3.06   -3.1842305    1.2673439    2.5676915 
        3.07   -3.1842837    1.2596372    2.6013073 
        3.08   -3.1842609    1.2536811    2.6296793 
        3.09   -3.1845028    1.2513479    2.6420862 
         3.1    -3.184504    1.2521848    2.6412329 
        3.11   -3.1843475    1.2546642    2.6342093 
        3.12   -3.1840552    1.2559965    2.6334037 
        3.13   -3.1840968    1.2533042    2.6499937 
        3.14   -3.1843978    1.2488473    2.6728535 
        3.15   -3.1842028    1.2476163     2.680553 
        3.16   -3.1840875    1.2482066    2.6789278 
        3.17   -3.1840489    1.2461998    2.6886225 
        3.18   -3.1839266    1.2412474    2.7117806 
        3.19   -3.1841235    1.2357713    2.7354607 
         3.2   -3.1842637    1.2363403    2.7289834 
        3.21   -3.1841931    1.2491081    2.6653583 
        3.22   -3.1842345    1.2673219    2.5769961 
        3.23   -3.1842708    1.2771167    2.5293208 
        3.24   -3.1842451    1.2742277     2.542624 
        3.25   -3.1842439    1.2676125    2.5748046 
        3.26   -3.1841641    1.2684058     2.573875 
        3.27   -3.1841454    1.2750097     2.546223 
        3.28   -3.1841622    1.2785088    2.5334268 
        3.29   -3.1841311    1.2730295    2.5631419 
         3.3   -3.1842483    1.2621536    2.6178673 
        3.31   -3.1841618    1.2548883    2.6543543 
        3.32   -3.1842429    1.2568659    2.6429587 
        3.33   -3.1841539    1.2691705    2.5784041 
        3.34   -3.1840153    1.2871161    2.4842485 
        3.35   -3.1842305    1.3014397    2.4062892 
        3.36   -3.1844751     1.304412    2.3846467 
        3.37   -3.1843486    1.2929186    2.4362144 
        3.38   -3.1843621    1.2738944    2.5282132 
        3.39     -3.18443    1.2599746    2.6019004 
         3.4   -3.1844319    1.2511703    2.6542994 
        3.41   -3.1845738    1.2421822    2.7058445 
        3.42   -3.1844036    1.2341629    2.7489478 
        3.43   -3.1844319    1.2333204    2.7522449 
        3.44   -3.1844959    1.2436384    2.6976536 
        3.45   -3.1845099    1.2606453    2.6078162 
        3.46   -3.1844982    1.2750637    2.5287286 
        3.47   -3.1844202       1.2806    2.4927625 
        3.48   -3.1843235     1.277211    2.5019655 
        3.49   -3.1845803    1.2680833    2.5408801 
         3.5   -3.1847752    1.2554666    2.5975821 
        3.51   -3.1847566    1.2436396    2.6502475 
        3.52   -3.1846084    1.2399155    2.6642564 
        3.53   -3.1844575    1.2455103    2.6336871 
        3.54   -3.1844272    1.2570076    2.5755311 
        3.55   -3.1844759    1.2663165     2.528568 
        3.56   -3.1845097    1.2685968    2.5163422 
        3.57   -3.1842948    1.2674683     2.523638 
        3.58   -3.1842144    1.2648752    2.5400441 
        3.59   -3.1842292    1.2609306    2.5627399 
         3.6   -3.1840797    1.2601178    2.5704907 
        3.61   -3.1839655    1.2599796    2.5730278 
        3.62   -3.1838789    1.2595869    2.5747873 
        3.63   -3.1838958    1.2623268    2.5609423 
        3.64   -3.1839035    1.2681684    2.5317017 
        3.65    -3.184105    1.2746603    2.4979091 
        3.66   -3.1842002    1.2779085    2.4780077 
        3.67   -3.1840783    1.2768973    2.4772747 
        3.68   -3.1839934    1.2775975      2.46948 
        3.69   -3.1842046    1.2826913    2.4429561 
         3.7   -3.1841508    1.2895675    2.4113329 
        3.71   -3.1843003    1.2955093    2.3880768 
        3.72   -3.1843065    1.2934152    2.4069395 
        3.73   -3.1844116    1.2781972    2.4894136 
        3.74   -3.1841744    1.2557926    2.6057406 
        3.75   -3.1843877    1.2395408    2.6897519 
        3.76   -3.1843383    1.2367333    2.7062793 
        3.77   -3.1842814    1.2433218    2.6728802 
        3.78   -3.1843223    1.2508527     2.630135 
        3.79   -3.1844499     1.255738    2.5977826 
         3.8   -3.1843828    1.2598672    2.5704115 
        3.81   -3.1845544    1.2634633    2.5477271 
        3.82   -3.1845236     1.263654    2.5439679 
        3.83   -3.1845823    1.2582061    2.5684428 
        3.84   -3.1845569    1.2485189     2.613716 
        3.85   -3.1843479    1.2388556    2.6584942 
        3.86    -3.184271    1.2355554    2.6721904 
        3.87    -3.184294    1.2385878     2.654425 
        3.88   -3.1842419    1.2420307    2.6324327 
        3.89   -3.1842422    1.2462458    2.6063543 
         3.9   -3.1844931    1.2503629    2.5816111 
        3.91   -3.1845682    1.2515654    2.5730282 
        3.92   -3.1845448    1.2510483    2.5768127 
        3.93   -3.1846729    1.2463218    2.6040388 
        3.94   -3.1845612    1.2361326    2.6598434 
        3.95   -3.1846017    1.2275388     2.710522 
        3.96   -3.1846728    1.2247163    2.7360776 
        3.97   -3.1846588    1.2239652    2.7520117 
        3.98   -3.1845506    1.2231715    2.7666896 
        3.99   -3.1844017    1.2252346    2.7659352 
           4    -3.184494    1.2308245    2.7450331 
        4.01   -3.1845385    1.2396947    2.7053121 
        4.02   -3.1846129    1.2498464      2.65714 
        4.03   -3.1844852    1.2566593    2.6245928 
        4.04   -3.1846063    1.2555621    2.6303482 
        4.05   -3.1844347     1.245405    2.6812721 
        4.06   -3.1843592    1.2296723    2.7588472 
        4.07   -3.1842905    1.2184346    2.8143819 
        4.08   -3.1841324    1.2194302    2.8108832 
        4.09   -3.1843814     1.227558     2.770529 
         4.1   -3.1845368     1.234977      2.73193 
        4.11     -3.18452    1.2391562    2.7094411 
        4.12   -3.1845709    1.2400932    2.7039157 
        4.13   -3.1846155    1.2368613    2.7190866 
        4.14   -3.1844503    1.2302578     2.749975 
        4.15   -3.1842734    1.2268631    2.7648275 
        4.16   -3.1842447    1.2332566    2.7330167 
        4.17   -3.1843173    1.2456605    2.6723708 
        4.18   -3.1842842    1.2535243    2.6323704 
        4.19   -3.1844352    1.2559146    2.6190736 
         4.2   -3.1842498    1.2544928    2.6264918 
        4.21   -3.1843299    1.2493561    2.6520067 
        4.22   -3.1843855    1.2458626    2.6713013 
        4.23   -3.1844447    1.2433603    2.6863332 
        4.24   -3.1845341    1.2379936      2.71312 
        4.25   -3.1845064    1.2323198     2.739097 
        4.26    -3.184752    1.2312219    2.7403803 
        4.27    -3.184559    1.2354175    2.7143959 
        4.28   -3.1844797    1.2410266    2.6785069 
        4.29   -3.1842901     1.244932    2.6488187 
         4.3   -3.1842553    1.2456741     2.632478 
        4.31   -3.1843791    1.2460122    2.6170821 
        4.32   -3.1843833    1.2529728      2.57221 
        4.33   -3.1842831    1.2670302     2.497927 
        4.34   -3.1843162    1.2794922    2.4358487 
        4.35   -3.1841155    1.2841066    2.4170414 
        4.36   -3.1841102     1.279561    2.4465648 
        4.37   -3.1840783    1.2712295    2.4989099 
        4.38   -3.1839548    1.2630717    2.5544022 
        4.39   -3.1836929    1.2494594     2.635377 
         4.4   -3.1839459    1.2311724    2.7334204 
        4.41   -3.1840781    1.2230516    2.7796954 
        4.42   -3.1842483     1.230021    2.7505578 
        4.43    -3.184251    1.2421713    2.6930784 
        4.44   -3.1843825    1.2490456    2.6575818 
        4.45   -3.1843219    1.2450968    2.6704315 
        4.46   -3.1843414    1.2390675    2.6912683 
        4.47   -3.1844781    1.2388998    2.6829966 
        4.48   -3.1844859    1.2456838    2.6408947 
        4.49    -3.184423    1.2570122    2.5769819 
         4.5    -3.184414     1.269864    2.5068274 
        4.51   -3.1845615    1.2814547    2.4455676 
        4.52   -3.1845375    1.2867373    2.4185927 
        4.53    -3.184717    1.2821289    2.4421966 
        4.54    -3.184742    1.2697627    2.5063931 
        4.55   -3.1846082    1.2575079    2.5740656 
        4.56   -3.1845066    1.2487749     2.627659 
        4.57   -3.1845438    1.2415496    2.6751981 
        4.58    -3.184576    1.2328202    2.7302607 
        4.59   -3.1844493    1.2230038    2.7903967 
         4.6   -3.1844798    1.2154362    2.8370787 
        4.61   -3.1844611    1.2208256    2.8203939 
        4.62   -3.1844787    1.2361824    2.7529998 
        4.63   -3.1845163    1.2495796    2.6898068 
        4.64   -3.1845289    1.2587237    2.6437826 
        4.65   -3.1845886    1.2655817    2.6080295 
        4.66   -3.1846022    1.2698403    2.5857856 
        4.67   -3.1845201    1.2688843    2.5899192 
        4.68    -3.184508    1.2635422     2.616235 
        4.69   -3.1844765     1.259987    2.6357692 
         4.7   -3.1846112    1.2623659    2.6279296 
        4.71   -3.1847219    1.2674637    2.6068266 
        4.72    -3.184657    1.2689611    2.6016467 
        4.73   -3.1848956     1.265228    2.6198464 
        4.74   -3.1847564    1.2583781    2.6530996 
        4.75   -3.1847442    1.2511957    2.6874785 
        4.76   -3.1847847    1.2452026    2.7156759 
        4.77   -3.1847233    1.2396439    2.7407002 
        4.78   -3.1847479    1.2358967    2.7556413 
        4.79   -3.1845899    1.2365458    2.7492556 
         4.8    -3.184518     1.240886    2.7248932 
        4.81   -3.1845619    1.2445818    2.7031554 
        4.82   -3.1844533    1.2430097    2.7059886 
        4.83   -3.1843267    1.2362198    2.7323676 
        4.84   -3.1844983     1.230112    2.7536982 
        4.85   -3.1845272    1.2288091    2.7504091 
        4.86   -3.1844793    1.2315481    2.7251187 
        4.87   -3.1845066    1.2364542    2.6867138 
        4.88   -3.1844894    1.2430058    2.6392192 
        4.89   -3.1842983    1.2510561    2.5853396 
         4.9   -3.1843928    1.2591363     2.532767 
        4.91   -3.1843541    1.2650916    2.4931844 
        4.92   -3.1842821    1.2686768    2.4682876 
        4.93   -3.1841867    1.2702737    2.4566028 
        4.94   -3.1842248    1.2680648    2.4656771 
        4.95   -3.1846027     1.263438     2.488365 
        4.96   -3.1847746    1.2617864    2.5009475 
        4.97    -3.184868    1.2620178    2.5074219 
        4.98   -3.1846619    1.2597857    2.5269011 
        4.99   -3.1845566    1.2571651     2.549174 
           5   -3.1847264    1.2557616    2.5663536 
        5.01   -3.1848736    1.2546826    2.5830667 
        5.02   -3.1848032    1.2496867    2.6183559 
        5.03   -3.1846489    1.2403538    2.6724936 
        5.04   -3.1845009    1.2327704    2.7154809 
        5.05   -3.1845031    1.2317908    2.7227165 
        5.06   -3.1843733    1.2355474    2.7020713 
        5.07   -3.1842085    1.2417765    2.6654597 
        5.08   -3.1840081    1.2497777    2.6200053 
        5.09   -3.1840608    1.2566794    2.5822387 
         5.1   -3.1839583    1.2590529    2.5709107 
        5.11   -3.1837962    1.2559552    2.5898711 
        5.12   -3.1835843    1.2505353    2.6219114 
        5.13    -3.183941    1.2468446    2.6431042 
        5.14    -3.184041    1.2496754    2.6294073 
        5.15   -3.1841688    1.2625015    2.5641051 
        5.16    -3.184179    1.2819297    2.4656788 
        5.17   -3.1843513    1.2969623    2.3880113 
        5.18   -3.1845313    1.2989806     2.374373 
        5.19   -3.1846244    1.2882321    2.4253581 
         5.2   -3.1844579    1.2712737    2.5104765 
        5.21   -3.1843328    1.2568189    2.5880004 
        5.22   -3.1844992    1.2458453    2.6509052 
        5.23   -3.1843054    1.2339513    2.7178916 
        5.24   -3.1844848    1.2224074    2.7809439 
        5.25   -3.1840871    1.2100707    2.8444903 
        5.26   -3.1840966    1.2015361    2.8843007 
        5.27   -3.1840779    1.2033744    2.8706588 
        5.28   -3.1843305    1.2137042    2.8120814 
        5.29   -3.1845529    1.2296837    2.7249535 
         5.3   -3.1846158    1.2462103    2.6358842 
        5.31   -3.1844903    1.2583956    2.5693108 
        5.32   -3.1844136    1.2644657    2.5333407 
        5.33   -3.1843206    1.2682084    2.5101456 
        5.34   -3.1843663    1.2737917    2.4793735 
        5.35   -3.1841805    1.2805249    2.4436769 
        5.36   -3.1839031    1.2872688     2.408416 
        5.37   -3.1840999    1.2916978    2.3847131 
        5.38   -3.1841229    1.2894579    2.3946795 
        5.39    -3.184234    1.2801747    2.4400196 
         5.4   -3.1842093    1.2684717    2.4993556 
        5.41   -3.1840271    1.2583775    2.5527776 
        5.42   -3.1839843    1.2519483    2.5891102 
        5.43   -3.1839615    1.2487031    2.6101201 
        5.44   -3.1839715    1.2450645    2.6318254 
        5.45   -3.1841102    1.2381756    2.6665998 
        5.46    -3.184155    1.2318081    2.6971393 
        5.47    -3.184181    1.2305986    2.7008405 
        5.48   -3.1840593    1.2364053    2.6679991 
        5.49   -3.1841162    1.2497193    2.5962497 
         5.5   -3.1838967    1.2676348     2.501798 
        5.51   -3.1838213    1.2835956    2.4172377 
        5.52   -3.1837499    1.2903006    2.3793274 
        5.53   -3.1839478    1.2866887    2.3947543 
        5.54   -3.1839679    1.2766095    2.4467287 
        5.55   -3.1839466    1.2622623    2.5222686 
        5.56   -3.1841406    1.2455036    2.6080989 
        5.57   -3.1842181    1.2352527    2.6609491 
        5.58   -3.1842002    1.2367353    2.6551461 
        5.59   -3.1842162    1.2464946    2.6064822 
         5.6   -3.1843172    1.2582013    2.5466738 
        5.61   -3.1842313    1.2639962    2.5151727 
        5.62   -3.1841167    1.2635144    2.5160199 
        5.63   -3.1840626     1.264935    2.5141652 
        5.64   -3.1840822    1.2646594    2.5243032 
        5.65     -3.18392     1.260131    2.5555859 
        5.66   -3.1841456    1.2588994    2.5709677 
        5.67   -3.1842944    1.2644452     2.554366 
        5.68   -3.1841869    1.2697651    2.5377568 
        5.69   -3.1840921    1.2665052    2.5588376 
         5.7   -3.1841684    1.2555456    2.6127422 
        5.71   -3.1842083    1.2477231    2.6494957 
        5.72   -3.1841021    1.2519454    2.6283735 
        5.73     -3.18404    1.2655027    2.5624565 
        5.74   -3.1840992    1.2787196    2.4985396 
        5.75   -3.1842301    1.2819573     2.483525 
        5.76   -3.1841217    1.2747173    2.5221891 
        5.77   -3.1841561    1.2617797    2.5914479 
        5.78   -3.1842027    1.2492818    2.6605599 
        5.79   -3.1842045    1.2452841    2.6906119 
         5.8   -3.1843747    1.2494732    2.6817523 
        5.81   -3.1844364    1.2554854     2.664747 
        5.82   -3.1844008    1.2554778    2.6771092 
        5.83    -3.184265    1.2467487    2.7313266 
        5.84   -3.1842838     1.237231    2.7901762 
        5.85   -3.1843747    1.2308784    2.8334424 
        5.86   -3.1844082    1.2260313    2.8663072 
        5.87   -3.1844194    1.2232364    2.8846143 
        5.88   -3.1846051    1.2276963    2.8645242 
        5.89   -3.1845969    1.2398741    2.8059491 
         5.9   -3.1845035    1.2518367    2.7467045 
        5.91   -3.1842479    1.2583199    2.7129545 
        5.92   -3.1841425    1.2613954    2.6965676 
        5.93   -3.1843586    1.2620453    2.6929467 
        5.94   -3.1842317    1.2585901    2.7093376 
        5.95   -3.1843053    1.2522129    2.7372618 
        5.96   -3.1841662    1.2465564      2.75838 
        5.97   -3.1843152    1.2441596    2.7588924 
        5.98   -3.1844835    1.2449804    2.7394449 
        5.99   -3.1842617    1.2509598     2.693925 
           6   -3.1841429    1.2631355    2.6203645 
        6.01   -3.1840669    1.2741676    2.5549704 
        6.02   -3.1840958    1.2773226    2.5296226 
        6.03   -3.1840615    1.2752374    2.5324701 
        6.04   -3.1841098    1.2736825    2.5353699 
        6.05   -3.1842598     1.273747     2.531241 
        6.06   -3.1843492    1.2734085    2.5281658 
        6.07   -3.1842744    1.2718883    2.5289847 
        6.08   -3.1841615    1.2727377    2.5171286 
        6.09   -3.1841578    1.2788263    2.4802005 
         6.1    -3.184211     1.287914    2.4309485 
        6.11   -3.1845019    1.2946548    2.3969696 
        6.12   -3.1844322    1.2925552    2.4112927 
        6.13   -3.1845222    1.2805326    2.4784393 
        6.14   -3.1844022    1.2668353    2.5607239 
        6.15   -3.1844141    1.2570205    2.6305107 
        6.16   -3.1844512    1.2465947    2.7055051 
        6.17   -3.1847191    1.2329365      2.79428 
        6.18   -3.1845999    1.2220641    2.8678499 
        6.19   -3.1846573    1.2188206    2.9011573 
         6.2   -3.1845967    1.2214581    2.9020854 
        6.21   -3.1844297    1.2249702     2.894408 
        6.22   -3.1844312    1.2256116    2.8959675 
        6.23   -3.1844106    1.2224665    2.9114646 
        6.24   -3.1842862    1.2193345    2.9234464 
        6.25   -3.1844286    1.2194114    2.9161065 
        6.26   -3.1844694    1.2230683    2.8879707 
        6.27   -3.1843938    1.2321248    2.8324436 
        6.28   -3.1844269    1.2445667    2.7611282 
        6.29    -3.184524    1.2542789    2.7048467 
         6.3    -3.184433    1.2567408     2.686862 
        6.31   -3.1844199     1.250362    2.7142727 
        6.32   -3.1845217    1.2387088    2.7689386 
        6.33   -3.1844244    1.2301575    2.8102271 
        6.34    -3.184369    1.2288637    2.8158216 
        6.35   -3.1845945    1.2302464    2.8045947 
        6.36   -3.1846176    1.2278408     2.807227 
        6.37   -3.1846097    1.2206613    2.8289122 
        6.38   -3.1845153    1.2157842     2.838307 
        6.39   -3.1844159    1.2199738    2.8050807 
         6.4   -3.1842246    1.2338865    2.7277778 
        6.41   -3.1841553    1.2514072     2.636005 
        6.42   -3.1842708    1.2640904    2.5703228 
        6.43   -3.1842365    1.2661375    2.5587155 
        6.44    -3.184234    1.2590098     2.593327 
        6.45   -3.1841967    1.2504719    2.6365955 
        6.46   -3.1841216    1.2457187    2.6621556 
        6.47   -3.1843969    1.2442137    2.6697464 
        6.48    -3.184659    1.2449319    2.6637788 
        6.49   -3.1847365    1.2483217    2.6425365 
         6.5   -3.1846734    1.2532941     2.611578 
        6.51   -3.1847534    1.2572686    2.5834542 
        6.52   -3.1848981    1.2613692    2.5551093 
        6.53   -3.1847575    1.2673052    2.5208959 
        6.54   -3.1846633    1.2731287    2.4896413 
        6.55   -3.1846244     1.278576    2.4631397 
        6.56   -3.1846289    1.2831542    2.4442129 
        6.57    -3.184662    1.2833572    2.4488027 
        6.58   -3.1843916    1.2788626    2.4789963 
        6.59    -3.184402    1.2714841    2.5252699 
         6.6   -3.1842928    1.2624348    2.5820479 
        6.61   -3.1841629    1.2520298    2.6467561 
        6.62   -3.1843531    1.2403347    2.7166589 
        6.63   -3.1844034    1.2302935     2.776355 
        6.64   -3.1843214     1.227464    2.7975373 
        6.65   -3.1843117    1.2368444    2.7554314 
        6.66   -3.1842644    1.2564385    2.6597746 
        6.67   -3.1844515    1.2779126    2.5511503 
        6.68   -3.1845334    1.2934706    2.4706964 
        6.69   -3.1847609    1.2967153    2.4515913 
         6.7   -3.1847429    1.2855668    2.5056682 
        6.71    -3.184757    1.2673102    2.5986627 
        6.72   -3.1847635    1.2507226    2.6878443 
        6.73   -3.1847513    1.2380715     2.758517 
        6.74   -3.1848154     1.231789    2.7960869 
        6.75   -3.1846487    1.2333618    2.7926429 
        6.76   -3.1848604    1.2395088    2.7623167 
        6.77    -3.184758    1.2457337    2.7284653 
        6.78   -3.1846804    1.2500739    2.7014178 
        6.79   -3.1847493    1.2563357    2.6659865 
         6.8   -3.1846576    1.2650711    2.6226079 
        6.81   -3.1846466    1.2694327    2.6039613 
        6.82     -3.18454    1.2641793    2.6348877 
        6.83   -3.1846216    1.2521322      2.70088 
        6.84   -3.1847839    1.2399655    2.7685035 
        6.85   -3.1849042    1.2322456    2.8129045 
        6.86   -3.1849739    1.2347795    2.8055451 
        6.87   -3.1848406    1.2480079    2.7452425 
        6.88   -3.1848247     1.262567    2.6760093 
        6.89   -3.1849054    1.2712045    2.6337519 
         6.9   -3.1851608    1.2735645    2.6223276 
        6.91   -3.1847928    1.2713553    2.6358741 
        6.92   -3.1847378    1.2658646    2.6662876 
        6.93   -3.1848147     1.257794    2.7094934 
        6.94   -3.1849514    1.2481352    2.7602366 
        6.95   -3.1848528     1.238286    2.8118202 
        6.96   -3.1847463    1.2299472    2.8546582 
        6.97   -3.1845948    1.2267525    2.8705705 
        6.98   -3.1844637    1.2325168    2.8412721 
        6.99   -3.1841627    1.2465173    2.7712527 
           7   -3.1838824    1.2625027    2.6907654 
        7.01   -3.1839125    1.2740898    2.6309464 
        7.02   -3.1839788    1.2773063    2.6119831 
        7.03   -3.1840551    1.2713114    2.6372449 
        7.04   -3.1839233     1.262102    2.6776158 
        7.05   -3.1840232    1.2594454    2.6860788 
        7.06   -3.1840239    1.2634056    2.6617688 
        7.07   -3.1841967    1.2694126    2.6261795 
        7.08   -3.1843914    1.2735339    2.5996609 
        7.09   -3.1844669    1.2695332    2.6104342 
         7.1   -3.1843299    1.2635006    2.6300723 
        7.11   -3.1844565    1.2646728    2.6152192 
        7.12   -3.1844178    1.2687714    2.5854173 
        7.13   -3.1843231    1.2703773    2.5662352 
        7.14   -3.1842596    1.2703377    2.5554251 
        7.15   -3.1843769    1.2711827    2.5424428 
        7.16    -3.184626    1.2715657    2.5339291 
        7.17   -3.1847054     1.269434    2.5402691 
        7.18   -3.1845381     1.263825    2.5660994 
        7.19   -3.1843785    1.2586326    2.5931077 
         7.2   -3.1842297    1.2592051     2.596886 
        7.21   -3.1842659    1.2620317     2.592416 
        7.22   -3.1843118    1.2621955    2.6022187 
        7.23    -3.184035    1.2568139    2.6391291 
        7.24   -3.1841036     1.248436    2.6888675 
        7.25   -3.1841426    1.2434922    2.7212328 
        7.26   -3.1843311    1.2419384    2.7341514 
        7.27   -3.1844248    1.2414859     2.737344 
        7.28   -3.1844455     1.241736    2.7326642 
        7.29   -3.1845285    1.2439727    2.7152007 
         7.3   -3.1843841     1.247339    2.6906617 
        7.31   -3.1840851    1.2495551    2.6698677 
        7.32   -3.1839604    1.2528388    2.6429747 
        7.33   -3.1837918    1.2567174    2.6129043 
        7.34   -3.1840323    1.2601873      2.58467 
        7.35   -3.1840167    1.2632552    2.5607646 
        7.36   -3.1839389    1.2653139    2.5444477 
        7.37   -3.1839229    1.2656935    2.5392217 
        7.38    -3.184051    1.2596254    2.5657642 
        7.39   -3.1841712    1.2500109    2.6099644 
         7.4   -3.1842051    1.2470176    2.6250201 
        7.41   -3.1840743    1.2548537    2.5922641 
        7.42   -3.1841231    1.2670033    2.5426179 
        7.43   -3.1841377    1.2720297     2.530576 
        7.44   -3.1840054    1.2618156    2.5928142 
        7.45   -3.1837982    1.2428276    2.6966731 
        7.46   -3.1838996    1.2298362     2.770305 
        7.47    -3.183962    1.2272021    2.7913837 
        7.48   -3.1838881    1.2288862     2.787635 
        7.49   -3.1836676    1.2279846    2.7922498 
         7.5    -3.183997    1.2255913    2.8009074 
        7.51   -3.1839038    1.2262208    2.7951648 
        7.52   -3.1840119    1.2302142    2.7718879 
        7.53   -3.1840444     1.233304    2.7500889 
        7.54   -3.1838726    1.2315055    2.7466949 
        7.55   -3.1838224    1.2314573    2.7302781 
        7.56   -3.1839141    1.2425861    2.6587963 
        7.57   -3.1836706    1.2606249    2.5543504 
        7.58   -3.1838144    1.2758979    2.4632892 
        7.59   -3.1840326    1.2849873    2.4056125 
         7.6   -3.1840903    1.2882114    2.3823689 
        7.61   -3.1841001    1.2874157    2.3852566 
        7.62   -3.1839048    1.2836843    2.4085626 
        7.63   -3.1839878    1.2758535    2.4546221 
        7.64   -3.1841047    1.2641304    2.5197568 
        7.65   -3.1843615    1.2531362    2.5789406 
        7.66   -3.1844819    1.2503182    2.5952349 
        7.67   -3.1844501    1.2617378    2.5400178 
        7.68   -3.1842303    1.2848233    2.4274874 
        7.69   -3.1842756    1.3045772    2.3287645 
         7.7   -3.1843319    1.3120521    2.2892613 
        7.71    -3.184029    1.3087799    2.3055524 
        7.72   -3.1840286     1.297023    2.3662202 
        7.73   -3.1842094    1.2789898    2.4588814 
        7.74   -3.1841465    1.2612238    2.5511522 
        7.75   -3.1842613    1.2516311    2.6041328 
        7.76   -3.1841747    1.2506606    2.6156345 
        7.77   -3.1841977    1.2518573    2.6151688 
        7.78   -3.1842298    1.2488405     2.632804 
        7.79   -3.1843527    1.2423511    2.6652236 
         7.8   -3.1843766    1.2396613    2.6794189 
        7.81   -3.1844042    1.2435507    2.6624245 
        7.82   -3.1843464    1.2490813    2.6374194 
        7.83   -3.1844928    1.2531195    2.6198037 
        7.84   -3.1842213    1.2568556    2.6064269 
        7.85    -3.184363     1.262098    2.5883344 
        7.86   -3.1845828    1.2648606    2.5836512 
        7.87   -3.1845148    1.2604139    2.6131021 
        7.88   -3.1846155    1.2510629     2.663808 
        7.89   -3.1846544    1.2419705    2.7102377 
         7.9   -3.1846021    1.2387944    2.7248492 
        7.91   -3.1847942    1.2437501    2.6967066 
        7.92   -3.1849131    1.2516192    2.6506381 
        7.93    -3.184797    1.2584844    2.6065827 
        7.94   -3.1845532    1.2641402    2.5677306 
        7.95   -3.1846204     1.265788    2.5476935 
        7.96   -3.1845936     1.261962    2.5548643 
        7.97   -3.1844046    1.2563064    2.5737737 
        7.98   -3.1845342    1.2510968    2.5935956 
        7.99   -3.1845183    1.2446958    2.6218957 
           8   -3.1844409    1.2373615     2.656529 
        8.01   -3.1842778    1.2308714    2.6877958 
        8.02   -3.1844077    1.2303392    2.6901196 
        8.03   -3.1844844    1.2408176    2.6408353 
        8.04   -3.1850449     1.256801    2.5654156 
        8.05   -3.1849367    1.2694959    2.5093636 
        8.06   -3.1849203    1.2719949    2.5063321 
        8.07   -3.1851121    1.2644325    2.5568421 
        8.08   -3.1850128    1.2520732    2.6363171 
        8.09   -3.1850922    1.2377672    2.7268903 
         8.1   -3.1849149    1.2253802    2.8072993 
        8.11   -3.1848623    1.2174373    2.8617025 
        8.12   -3.1849216    1.2133169    2.8903837 
        8.13   -3.1853041    1.2138641    2.8888139 
        8.14   -3.1850116    1.2201467    2.8550087 
        8.15   -3.1848866    1.2332204       2.7857 
        8.16   -3.1850068    1.2502731    2.6970278 
        8.17   -3.1849939    1.2649134    2.6217542 
        8.18   -3.1851275    1.2722796    2.5836126 
        8.19   -3.1851259    1.2699551    2.5940058 
         8.2    -3.184985    1.2598824    2.6420748 
        8.21   -3.1846783    1.2474257    2.7002566 
        8.22   -3.1848997    1.2388976    2.7356433 
        8.23   -3.1847645    1.2389943    2.7264357 
        8.24   -3.1846223    1.2502501     2.661501 
        8.25   -3.1846756    1.2665786    2.5711653 
        8.26   -3.1846792     1.277967    2.5055213 
        8.27   -3.1846293    1.2798652    2.4890917 
        8.28   -3.1845051    1.2730478    2.5195784 
        8.29   -3.1842546    1.2619758    2.5749823 
         8.3    -3.184128    1.2528084     2.622982 
        8.31   -3.1842451    1.2518126    2.6315649 
        8.32   -3.1839281    1.2576781    2.6059993 
        8.33   -3.1838875     1.267147    2.5611116 
        8.34   -3.1839931    1.2749604    2.5234749 
        8.35   -3.1838165    1.2742174    2.5265704 
        8.36   -3.1838413    1.2660893    2.5644473 
        8.37   -3.1842079     1.258027    2.6018877 
        8.38   -3.1839545    1.2526184    2.6259795 
        8.39   -3.1840447    1.2516784    2.6251535 
         8.4   -3.1840108    1.2575235    2.5903207 
        8.41    -3.183926    1.2657855    2.5435618 
        8.42   -3.1840726     1.267911     2.525948 
        8.43   -3.1841984    1.2599932    2.5570832 
        8.44   -3.1843279    1.2475329    2.6116886 
        8.45   -3.1843072    1.2391057    2.6493309 
        8.46     -3.18434    1.2393273    2.6471978 
        8.47   -3.1844402    1.2440215    2.6233904 
        8.48   -3.1844767    1.2471374    2.6054123 
        8.49   -3.1841903    1.2502655    2.5867601 
         8.5   -3.1841825    1.2586008    2.5439768 
        8.51   -3.1841531    1.2683146    2.4967439 
        8.52   -3.1840483    1.2706447    2.4869993 
        8.53   -3.1838176    1.2649692    2.5189275 
        8.54   -3.1840004    1.2567938    2.5663122 
        8.55   -3.1841968      1.24966     2.612625 
        8.56   -3.1840958    1.2403885    2.6709037 
        8.57   -3.1840215    1.2275135    2.7444406 
        8.58   -3.1840991    1.2199487     2.789633 
        8.59   -3.1839194    1.2263909    2.7659272 
         8.6   -3.1837783    1.2403977    2.7022997 
        8.61   -3.1839212    1.2496655    2.6564933 
        8.62   -3.1839202    1.2518828    2.6426005 
        8.63   -3.1839212    1.2522353    2.6384129 
        8.64   -3.1838901    1.2545915    2.6264382 
        8.65   -3.1840535    1.2581592    2.6088392 
        8.66   -3.1841281    1.2631612    2.5843628 
        8.67   -3.1841788    1.2702846    2.5501415 
        8.68   -3.1841729    1.2779128    2.5148466 
        8.69   -3.1841408    1.2850041    2.4855734 
         8.7   -3.1841938    1.2855899    2.4904194 
        8.71    -3.184055    1.2762927    2.5441604 
        8.72   -3.1842361     1.270762    2.5848718 
        8.73   -3.1844269    1.2637687    2.6344808 
        8.74   -3.1845701    1.2530639    2.7019112 
        8.75   -3.1846132    1.2425255    2.7676899 
        8.76   -3.1845465    1.2337242    2.8214823 
        8.77   -3.1844745    1.2279322    2.8546928 
        8.78   -3.1843882    1.2260134    2.8622023 
        8.79   -3.1844318    1.2274535    2.8462734 
         8.8   -3.1846653    1.2333973    2.8031448 
        8.81   -3.1846839    1.2457932    2.7271884 
        8.82   -3.1848826    1.2615105    2.6348898 
        8.83   -3.1848193    1.2732872    2.5628417 
        8.84   -3.1849209    1.2779686    2.5273832 
        8.85   -3.1847844     1.277758    2.5207932 
        8.86   -3.1847618     1.276616    2.5251471 
        8.87   -3.1848417    1.2752561    2.5367565 
        8.88   -3.1847969    1.2712847    2.5653725 
        8.89    -3.184658    1.2652092    2.6070326 
         8.9   -3.1847756    1.2591222    2.6502339 
        8.91   -3.1847776    1.2514703    2.7010729 
        8.92   -3.1844974     1.240632    2.7659737 
        8.93   -3.1843351    1.2278977    2.8371973 
        8.94   -3.1843679    1.2181529    2.8908251 
        8.95   -3.1841778    1.2172728    2.8994743 
        8.96   -3.1842681    1.2244593    2.8653947 
        8.97   -3.1843079    1.2330796    2.8201825 
        8.98   -3.1843036    1.2402122     2.779972 
        8.99   -3.1842894    1.2436083    2.7573304 
           9   -3.1841901    1.2410631    2.7627077 
        9.01   -3.1841586    1.2377163    2.7715335 
        9.02   -3.1844002    1.2414855    2.7462894 
        9.03   -3.1845475      1.25177    2.6897205 
        9.04   -3.1845337    1.2630022    2.6286582 
        9.05   -3.1843455    1.2710536    2.5847621 
        9.06   -3.1844564    1.2721043    2.5765921 
        9.07   -3.1843426     1.265254    2.6091367 
        9.08   -3.1845517    1.2548507    2.6601918 
        9.09   -3.1846109    1.2458198    2.7052631 
         9.1   -3.1844554     1.240673    2.7299089 
        9.11    -3.184533    1.2420238    2.7200637 
        9.12   -3.1846052    1.2493323    2.6791862 
        9.13   -3.1846851    1.2566707    2.6361326 
        9.14   -3.1848252    1.2602156    2.6106351 
        9.15   -3.1846802    1.2609944    2.6003667 
        9.16   -3.1845356    1.2611754    2.5957894 
        9.17   -3.1844446    1.2622604    2.5905865 
        9.18   -3.1842687    1.2619118    2.5955806 
        9.19   -3.1841215    1.2566291    2.6253105 
         9.2   -3.1840706    1.2508677    2.6580059 
        9.21   -3.1842172    1.2509121     2.663597 
        9.22   -3.1840116    1.2537881      2.65487 
        9.23   -3.1838118    1.2564704    2.6448606 
        9.24   -3.1840617    1.2597104    2.6307328 
        9.25   -3.1840008    1.2600751    2.6302661 
        9.26    -3.183912     1.254169    2.6585532 
        9.27   -3.1840682    1.2485111    2.6853654 
        9.28   -3.1841224    1.2507264     2.676254 
        9.29   -3.1837582    1.2568566     2.649223 
         9.3   -3.1838342    1.2594603    2.6370968 
        9.31     -3.18387    1.2585989    2.6415803 
        9.32   -3.1837557    1.2565126    2.6530757 
        9.33   -3.1835819    1.2531033    2.6709625 
        9.34   -3.1834987    1.2522147    2.6767222 
        9.35   -3.1833102     1.258958    2.6471352 
        9.36   -3.1834173    1.2702983    2.5951459 
        9.37   -3.1833948     1.278129    2.5586102 
        9.38   -3.1835697    1.2779098    2.5581451 
        9.39   -3.1836498    1.2710034    2.5872217 
         9.4   -3.1839264    1.2655182    2.6070068 
        9.41   -3.1841604    1.2687533    2.5839971 
        9.42   -3.1841043    1.2774555    2.5336083 
        9.43   -3.1842702    1.2863878    2.4807331 
        9.44   -3.1842614    1.2922042    2.4433835 
        9.45   -3.1843173    1.2918526     2.436004 
        9.46   -3.1843726    1.2846356     2.461482 
        9.47   -3.1845348    1.2760103    2.4942497 
        9.48   -3.1845471    1.2736081    2.5004729 
        9.49   -3.1843764    1.2767129    2.4850776 
         9.5   -3.1847057     1.276334    2.4896787 
        9.51   -3.1846543    1.2666356    2.5429209 
        9.52   -3.1846632    1.2505398    2.6291895 
        9.53   -3.1847135    1.2366067     2.706388 
        9.54   -3.1847551    1.2306527    2.7450152 
        9.55   -3.1846231     1.231583    2.7482985 
        9.56   -3.1844452    1.2387675    2.7196334 
        9.57   -3.1845389    1.2482028     2.678645 
        9.58   -3.1846113    1.2529713    2.6587973 
        9.59   -3.1847176    1.2508209    2.6705284 
         9.6   -3.1849533    1.2445083    2.6997905 
        9.61   -3.1847439    1.2395967    2.7202752 
        9.62   -3.1847116    1.2417004    2.7047843 
        9.63   -3.1847293    1.2498327    2.6588313 
        9.64   -3.1846839    1.2572431    2.6150013 
        9.65   -3.1848211     1.259625    2.5941591 
        9.66   -3.1847533    1.2563704    2.5998152 
        9.67   -3.1846911    1.2502052    2.6174313 
        9.68   -3.1845709    1.2482309    2.6129006 
        9.69   -3.1844118    1.2555301    2.5625887 
         9.7    -3.184513    1.2715021    2.4711983 
        9.71   -3.1845013    1.2879832    2.3806814 
        9.72   -3.1845313     1.295026    2.3396241 
        9.73   -3.1846132    1.2901092    2.3606082 
        9.74   -3.1846913    1.2789508    2.4157909 
        9.75   -3.1847237    1.2703743    2.4621833 
        9.76   -3.1846411    1.2660638    2.4892402 
        9.77   -3.1844428    1.2659496     2.496148 
        9.78   -3.1842327    1.2698201    2.4843721 
        9.79   -3.1841603    1.2739183    2.4720493 
         9.8    -3.184315    1.2741239     2.479022 
        9.81    -3.184331    1.2690309     2.512789 
        9.82   -3.1842074    1.2597363    2.5676918 
        9.83   -3.1842061     1.250618     2.621897 
        9.84   -3.1840915    1.2482395    2.6445954 
        9.85   -3.1841896    1.2524595    2.6344809 
        9.86   -3.1840524    1.2585801    2.6128895 
        9.87   -3.1842597    1.2655484    2.5844981 
        9.88    -3.184334    1.2730708    2.5528003 
        9.89   -3.1841211    1.2779565    2.5334276 
         9.9   -3.1840273    1.2788245    2.5325158 
        9.91   -3.1842713    1.2760432    2.5479689 
        9.92   -3.1843908    1.2682186    2.5858654 
        9.93   -3.1843925    1.2577635    2.6343682 
        9.94   -3.1842583    1.2532723    2.6546743 
        9.95   -3.1843472    1.2577206    2.6329718 
        9.96   -3.1844401    1.2655555     2.594968 
        9.97   -3.1843088    1.2717732     2.564176 
        9.98   -3.1842856     1.276634    2.5395197 
        9.99    -3.184279    1.2798833     2.523103 
          10   -3.1843526    1.2746309    2.5453077 
       10.01   -3.1845184    1.2674048    2.5767106 
       10.02   -3.1845467    1.2661593    2.5817642 
       10.03   -3.1844146     1.266175    2.5818546 
       10.04   -3.1844617    1.2624214    2.6004568 
       10.05   -3.1844223    1.2559878    2.6344134 
       10.06   -3.1842697    1.2483139    2.6769985 
       10.07   -3.1843255    1.2402459     2.722161 
       10.08   -3.1843663    1.2364048    2.7479146 
       10.09   -3.1843466    1.2394623     2.741894 
        10.1   -3.1843227    1.2434703    2.7312713 
       10.11   -3.1843892    1.2445756    2.7349654 
       10.12   -3.1843271    1.2412975    2.7609415 
       10.13   -3.1843275     1.231856    2.8155453 
       10.14   -3.1844755    1.2211698    2.8741775 
       10.15   -3.1846521    1.2152147    2.9071525 
       10.16   -3.1848179    1.2176534    2.8961023 
       10.17   -3.1850439    1.2269847    2.8475288 
       10.18   -3.1848934    1.2405891    2.7762943 
       10.19   -3.1851213     1.253556    2.7071419 
        10.2   -3.1851241    1.2570102    2.6838323 
       10.21   -3.1849175    1.2485331    2.7176404 
       10.22   -3.1847337    1.2371302    2.7657951 
       10.23    -3.184787    1.2317719    2.7846955 
       10.24   -3.1845869    1.2346463    2.7633785 
       10.25   -3.1842967    1.2429287    2.7141207 
       10.26   -3.1843695    1.2512398    2.6612503 
       10.27    -3.184294    1.2578204    2.6149299 
       10.28   -3.1844797    1.2652848    2.5644521 
       10.29    -3.184526    1.2734591    2.5127757 
        10.3   -3.1843039    1.2790803    2.4763254 
       10.31   -3.1841042    1.2784334    2.4726239 
       10.32   -3.1839963    1.2689205     2.513157 
       10.33   -3.1839171    1.2545846     2.578289 
       10.34   -3.1839446    1.2433267    2.6297289 
       10.35   -3.1838993    1.2407185     2.640547 
       10.36   -3.1838298    1.2474096    2.6074669 
       10.37   -3.1838243    1.2566786    2.5614223 
       10.38   -3.1835651    1.2629184    2.5294277 
       10.39   -3.1835792    1.2669533    2.5078595 
        10.4   -3.1836177    1.2708842    2.4875732 
       10.41    -3.183733    1.2751537     2.466087 
       10.42   -3.1836699    1.2793828    2.4458997 
       10.43   -3.1835933    1.2810017    2.4396517 
       10.44   -3.1837048    1.2755363    2.4684106 
       10.45   -3.1837105    1.2626142    2.5342237 
       10.46   -3.1838621    1.2488497      2.60473 
       10.47   -3.1839502    1.2430575    2.6370772 
       10.48   -3.1840272    1.2502417    2.6066027 
       10.49   -3.1838773    1.2649851    2.5387997 
        10.5   -3.1838444    1.2773255    2.4810099 
       10.51   -3.1837698    1.2811903    2.4633897 
       10.52   -3.1837543    1.2790632    2.4749011 
       10.53   -3.1838825    1.2790661     2.477858 
       10.54   -3.1839118    1.2834831    2.4617417 
       10.55   -3.1839917    1.2857416    2.4561285 
       10.56   -3.1840649    1.2820003    2.4789012 
       10.57    -3.184028    1.2752342    2.5161437 
       10.58   -3.1841604    1.2694167    2.5474206 
       10.59   -3.1842792    1.2651794      2.56758 
        10.6   -3.1842872    1.2649737    2.5647287 
       10.61   -3.1843668    1.2719871    2.5257536 
       10.62   -3.1842866    1.2823279    2.4724211 
       10.63   -3.1841767    1.2839341    2.4627903 
       10.64   -3.1841526    1.2717023    2.5215183 
       10.65   -3.1841667    1.2529442    2.6145564 
       10.66   -3.1840761    1.2365001    2.6989438 
       10.67   -3.1840648    1.2271661    2.7495108 
       10.68   -3.1840586     1.225815    2.7608077 
       10.69   -3.1841831    1.2281634    2.7515529 
        10.7   -3.1839894    1.2305392    2.7393803 
       10.71   -3.1838409    1.2349853    2.7150951 
       10.72   -3.1838344    1.2455443    2.6615778 
       10.73   -3.1839416    1.2572723    2.6027675 
       10.74   -3.1837639    1.2611445    2.5810131 
       10.75   -3.1836386    1.2581922    2.5909821 
       10.76    -3.183759    1.2564626    2.5947178 
       10.77   -3.1837811    1.2571982    2.5849032 
       10.78   -3.1839814    1.2602587     2.561019 
       10.79   -3.1839835    1.2666675    2.5207467 
        10.8   -3.1840325    1.2703307     2.493317 
       10.81   -3.1840457    1.2676964    2.4966993 
       10.82   -3.1839266    1.2661029    2.4995309 
       10.83   -3.1838996    1.2692882    2.4848492 
       10.84   -3.1839403    1.2720378     2.475329 
       10.85   -3.1839864    1.2710405    2.4849924 
       10.86   -3.1838844     1.268436    2.5034219 
       10.87   -3.1840107    1.2670242    2.5163446 
       10.88   -3.1838513    1.2668203    2.5235496 
       10.89    -3.183735    1.2681611    2.5223167 
        10.9   -3.1838677    1.2716825    2.5088021 
       10.91    -3.183942    1.2758643    2.4899831 
       10.92   -3.1840314    1.2778692    2.4790029 
       10.93    -3.184028    1.2772286    2.4793767 
       10.94     -3.18392    1.2767981    2.4799934 
       10.95   -3.1838477    1.2759694    2.4842833 
       10.96   -3.1838354    1.2751226    2.4909821 
       10.97   -3.1838968    1.2750405    2.4964436 
       10.98   -3.1839054    1.2749045    2.5043088 
       10.99   -3.1839513     1.272265    2.5251536 
          11   -3.1839629    1.2665486    2.5610631 
       11.01   -3.1840156    1.2622117    2.5913307 
       11.02    -3.183899    1.2610469    2.6076059 
       11.03   -3.1839879    1.2594529    2.6249988 
       11.04    -3.184026    1.2553802    2.6533007 
       11.05   -3.1841875    1.2488003     2.692639 
       11.06   -3.1840447    1.2386378    2.7479424 
       11.07   -3.1838756    1.2267016    2.8090464 
       11.08    -3.183932    1.2188025    2.8470424 
       11.09   -3.1837954    1.2189892    2.8421182 
        11.1   -3.1836603     1.226411    2.7972539 
       11.11   -3.1835673    1.2371027    2.7321521 
       11.12   -3.1835693    1.2447071    2.6780179 
       11.13   -3.1834347    1.2465446    2.6493648 
       11.14   -3.1834906    1.2454138    2.6337934 
       11.15   -3.1834935     1.245986    2.6104095 
       11.16   -3.1835944    1.2517838     2.563034 
       11.17   -3.1836395     1.264866    2.4838367 
       11.18   -3.1836664    1.2793254    2.4004299 
       11.19   -3.1838456    1.2896301    2.3385286 
        11.2   -3.1839396    1.2959579    2.2988666 
       11.21   -3.1837458    1.2970282    2.2879128 
       11.22   -3.1837902    1.2905643    2.3145951 
       11.23   -3.1837517    1.2812289    2.3578376 
       11.24   -3.1838683    1.2743641    2.3921229 
       11.25   -3.1837585    1.2699469     2.416781 
       11.26     -3.18389    1.2681394    2.4298639 
       11.27   -3.1839586    1.2684874    2.4341818 
       11.28   -3.1837553    1.2684428    2.4416494 
       11.29   -3.1838945    1.2679754    2.4510305 
        11.3   -3.1837811    1.2695815    2.4516376 
       11.31   -3.1838925    1.2718996    2.4489832 
       11.32   -3.1840562    1.2690812    2.4703273 
       11.33   -3.1841788    1.2581928    2.5294017 
       11.34   -3.1838959    1.2440166    2.6048856 
       11.35   -3.1838815    1.2315351    2.6718258 
       11.36   -3.1837602    1.2213097    2.7258436 
       11.37   -3.1841883    1.2158466    2.7522521 
       11.38    -3.184173    1.2194929    2.7316563 
       11.39   -3.1841716    1.2308936    2.6691937 
        11.4   -3.1841568    1.2448169    2.5901075 
       11.41   -3.1841231    1.2575366    2.5145487 
       11.42   -3.1839807    1.2682225    2.4507575 
       11.43   -3.1839225    1.2764819    2.4046307 
       11.44   -3.1839564    1.2794173    2.3923399 
       11.45   -3.1839941    1.2717841    2.4371144 
       11.46   -3.1836818    1.2586088    2.5135394 
       11.47   -3.1838993    1.2496907    2.5712661 
       11.48   -3.1838833    1.2473189    2.5972242 
       11.49    -3.183924     1.246351    2.6121838 
        11.5   -3.1840311    1.2440833    2.6281051 
       11.51   -3.1841169    1.2424832    2.6365949 
       11.52    -3.184046    1.2444178    2.6253705 
       11.53   -3.1842222    1.2530437    2.5814092 
       11.54    -3.184322    1.2623042    2.5345482 
       11.55   -3.1844316     1.264555    2.5209652 
       11.56   -3.1843287    1.2590535    2.5449716 
       11.57   -3.1842347    1.2503742    2.5844064 
       11.58   -3.1842437    1.2451666    2.6077571 
       11.59   -3.1841735     1.245734    2.6047372 
        11.6   -3.1843561    1.2463908    2.6011523 
       11.61   -3.1842142    1.2413473    2.6245323 
       11.62   -3.1844274    1.2347746    2.6550477 
       11.63   -3.1846849    1.2325335    2.6662307 
       11.64   -3.1847317    1.2351482    2.6567086 
       11.65   -3.1845849    1.2386424    2.6468819 
       11.66   -3.1847179    1.2363674    2.6680408 
       11.67   -3.1847202    1.2266574    2.7283732 
       11.68   -3.1845298    1.2135472    2.8073002 
       11.69    -3.184434    1.2026614    2.8750089 
        11.7   -3.1844815    1.1983044    2.9083789 
       11.71   -3.1843888    1.2028547    2.8956275 
       11.72   -3.1842776    1.2152993    2.8424441 
       11.73   -3.1840214    1.2304349    2.7756918 
       11.74   -3.1843531     1.240006    2.7344399 
       11.75   -3.1845369    1.2360425     2.756194 
       11.76   -3.1840194    1.2220073    2.8236714 
       11.77   -3.1839356     1.211602    2.8693161 
       11.78   -3.1839074    1.2139461    2.8496883 
       11.79   -3.1841049     1.228941    2.7659015 
        11.8   -3.1841075    1.2456473    2.6708444 
       11.81   -3.1841797      1.25539    2.6058595 
       11.82   -3.1842605    1.2607174    2.5608737 
       11.83   -3.1842725    1.2674813    2.5097784 
       11.84   -3.1843838    1.2787797    2.4393679 
       11.85     -3.18438    1.2919142    2.3647581 
       11.86   -3.1844277     1.299773    2.3206983 
       11.87   -3.1844382    1.2980325    2.3286034 
       11.88   -3.1842742    1.2868153    2.3875237 
       11.89   -3.1843051    1.2677942    2.4857932 
        11.9   -3.1843287    1.2502086    2.5778619 
       11.91   -3.1843657    1.2476366    2.6006625 
       11.92   -3.1845511    1.2565132    2.5706534 
       11.93   -3.1845235    1.2614401    2.5600841 
       11.94   -3.1844472    1.2554864    2.6020542 
       11.95   -3.1844335     1.242623    2.6780856 
       11.96   -3.1843221    1.2314022    2.7472254 
       11.97   -3.1843662    1.2292843      2.77266 
       11.98   -3.1843254    1.2361929    2.7539771 
       11.99   -3.1843101    1.2442735      2.72712 
          12   -3.1842665    1.2465598    2.7250627 
       12.01    -3.184335    1.2424409    2.7508877 
       12.02    -3.184445    1.2355869    2.7868425 
       12.03   -3.1843765    1.2319742    2.8044077 
       12.04   -3.1841639    1.2346581    2.7890134 
       12.05   -3.1842061    1.2385985    2.7632937 
       12.06   -3.1842155     1.239777    2.7475093 
       12.07   -3.1842238    1.2390714    2.7389775 
       12.08   -3.1840787    1.2386175    2.7282837 
       12.09   -3.1842061      1.24102     2.702217 
        12.1   -3.1840175     1.249622    2.6464684 
       12.11   -3.1839693    1.2651449    2.5587837 
       12.12   -3.1837084    1.2804507    2.4749388 
       12.13   -3.1838625    1.2882495    2.4298525 
       12.14   -3.1839558    1.2906576    2.4170765 
       12.15   -3.1839326       1.2875     2.437092 
       12.16   -3.1839289    1.2764723    2.4969693 
       12.17   -3.1841994    1.2655776    2.5565776 
       12.18    -3.184059    1.2630349    2.5766277 
       12.19   -3.1841971    1.2673348    2.5609439 
        12.2   -3.1841293    1.2724011    2.5378101 
       12.21   -3.1841276    1.2750685    2.5226269 
       12.22   -3.1839704    1.2765395    2.5126762 
       12.23   -3.1837774    1.2753395    2.5160704 
       12.24   -3.1838228    1.2686324    2.5456024 
       12.25   -3.1838456    1.2600261    2.5855441 
       12.26   -3.1839071    1.2541908    2.6146962 
       12.27   -3.1842957    1.2512892    2.6317023 
       12.28   -3.1843385    1.2506404    2.6408817 
       12.29   -3.1841116    1.2484559    2.6586811 
        12.3   -3.1840857    1.2423301    2.6936778 
       12.31    -3.184063    1.2361619    2.7264663 
       12.32   -3.1841819    1.2354497    2.7300247 
       12.33   -3.1841353    1.2408127    2.7011751 
       12.34   -3.1842886    1.2490641    2.6546081 
       12.35   -3.1842388    1.2590369    2.5987326 
       12.36   -3.1844313    1.2702623    2.5376919 
       12.37   -3.1845446    1.2810186    2.4821659 
       12.38   -3.1844802    1.2874471    2.4510909 
       12.39   -3.1844709    1.2882463    2.4501123 
        12.4   -3.1845807    1.2859624    2.4666256 
       12.41   -3.1845717    1.2814244    2.4945446 
       12.42   -3.1844054    1.2776916    2.5174822 
       12.43   -3.1842655    1.2768006    2.5243984 
       12.44   -3.1843528    1.2761695     2.526677 
       12.45   -3.1844782    1.2713583    2.5456746 
       12.46   -3.1846824    1.2626469    2.5812477 
       12.47   -3.1845604     1.253804    2.6176375 
       12.48   -3.1845599    1.2470212    2.6443085 
       12.49   -3.1847423    1.2432438    2.6573381 
        12.5   -3.1847348    1.2414029    2.6626017 
       12.51   -3.1847334    1.2396218    2.6679347 
       12.52   -3.1847702    1.2403657    2.6614629 
       12.53   -3.1848165    1.2464946    2.6296459 
       12.54   -3.1847579    1.2570329    2.5771736 
       12.55   -3.1847845      1.26987    2.5151354 
       12.56   -3.1847497    1.2794155    2.4713739 
       12.57   -3.1847978    1.2805293    2.4707713 
       12.58   -3.1848641    1.2735913    2.5121991 
       12.59   -3.1847007    1.2629164    2.5748798 
        12.6   -3.1848865    1.2536976    2.6312266 
       12.61    -3.184889    1.2512457    2.6555671 
       12.62    -3.184538    1.2537185    2.6548438 
       12.63   -3.1845454    1.2561568    2.6498302 
       12.64   -3.1843943    1.2569957    2.6483271 
       12.65   -3.1842048    1.2597276    2.6342898 
       12.66   -3.1840682    1.2671092    2.5956876 
       12.67   -3.1841697     1.274434     2.554697 
       12.68    -3.184184    1.2779396    2.5310006 
       12.69   -3.1842466    1.2784061    2.5228268 
        12.7   -3.1843338    1.2778323    2.5222041 
       12.71   -3.1841443    1.2763745     2.529055 
       12.72    -3.184137    1.2724474    2.5491686 
       12.73   -3.1842377    1.2678496    2.5737733 
       12.74   -3.1843576     1.265697    2.5878878 
       12.75   -3.1844576    1.2668361    2.5867116 
       12.76   -3.1844751    1.2702274    2.5746731 
       12.77   -3.1844539    1.2741892    2.5597973 
       12.78    -3.184518    1.2765183    2.5530756 
       12.79   -3.1844068    1.2730739    2.5746027 
        12.8   -3.1843204    1.2610172    2.6365246 
       12.81   -3.1843612     1.245471    2.7140286 
       12.82   -3.1845124     1.234843    2.7673436 
       12.83   -3.1847641    1.2281944    2.7983939 
       12.84   -3.1845493    1.2222941    2.8202052 
       12.85   -3.1844268    1.2229657    2.8041298 
       12.86   -3.1843812    1.2360303     2.724268 
       12.87   -3.1844243    1.2567378    2.6050845 
       12.88   -3.1846801    1.2744215    2.4995813 
       12.89   -3.1846921    1.2835192    2.4384344 
        12.9     -3.18449    1.2838538     2.424488 
       12.91    -3.184635    1.2811231    2.4311986 
       12.92   -3.1845597    1.2795536    2.4393066 
       12.93   -3.1845764    1.2769673    2.4568316 
       12.94   -3.1842938    1.2685158    2.5043938 
       12.95   -3.1841447    1.2567827    2.5671883 
       12.96   -3.1839826    1.2482852    2.6131244 
       12.97   -3.1840653    1.2463715    2.6245495 
       12.98   -3.1840174    1.2502997    2.6049434 
       12.99   -3.1841062    1.2577389    2.5655701 
          13   -3.1840974     1.266434    2.5189398 
       13.01   -3.1840338    1.2736304    2.4791147 
       13.02   -3.1839022    1.2768095    2.4585987 
       13.03   -3.1839431    1.2754895     2.459788 
       13.04     -3.18405    1.2687082    2.4864018 
       13.05   -3.1839463    1.2603558     2.519977 
       13.06   -3.1837775    1.2594695    2.5197501 
       13.07    -3.183891     1.265256    2.4906012 
       13.08   -3.1840509    1.2688412    2.4760962 
       13.09   -3.1841273     1.263879    2.5075038 
        13.1   -3.1841888    1.2510695    2.5812982 
       13.11   -3.1842077    1.2351884    2.6726871 
       13.12   -3.1842806    1.2214677    2.7525657 
       13.13    -3.184377    1.2188542    2.7764148 
       13.14   -3.1845892    1.2294206    2.7328758 
       13.15   -3.1846096    1.2448018    2.6607208 
       13.16   -3.1846815    1.2594891    2.5873275 
       13.17   -3.1849495    1.2713859    2.5248058 
       13.18   -3.1847468     1.279379    2.4812763 
       13.19    -3.185089    1.2826459     2.459783 
        13.2   -3.1852043    1.2836256    2.4507551 
       13.21   -3.1851568    1.2869457    2.4334055 
       13.22   -3.1852078    1.2907977    2.4155651 
       13.23   -3.1851128    1.2891168    2.4249471 
       13.24   -3.1853125     1.282801    2.4571836 
       13.25   -3.1849978    1.2743082     2.502038 
       13.26   -3.1849053    1.2631701    2.5583578 
       13.27   -3.1849731    1.2555462     2.596186 
       13.28    -3.184719    1.2588732    2.5815746 
       13.29   -3.1847307    1.2668328    2.5414006 
        13.3   -3.1846764    1.2757965    2.4945112 
       13.31   -3.1843625    1.2836187    2.4531636 
       13.32     -3.18458    1.2862034     2.435655 
       13.33   -3.1847948    1.2842005    2.4404051 
       13.34   -3.1848484    1.2813548    2.4511236 
       13.35   -3.1847848    1.2790722     2.461787 
       13.36   -3.1847215    1.2751876    2.4821643 
       13.37   -3.1844859    1.2671777    2.5234144 
       13.38   -3.1843089    1.2550158    2.5838261 
       13.39    -3.184298    1.2414062    2.6487107 
        13.4   -3.1842086    1.2317116    2.6923095 
       13.41   -3.1842113    1.2282091    2.7032281 
       13.42   -3.1842472    1.2285878    2.6926149 
       13.43   -3.1842521    1.2296973     2.676301 
       13.44   -3.1840956    1.2315128    2.6560946 
       13.45   -3.1844183    1.2368408    2.6194312 
       13.46   -3.1843672    1.2467524    2.5638226 
       13.47   -3.1841492    1.2579636    2.5049036 
       13.48   -3.1840454    1.2653333    2.4661813 
       13.49   -3.1841941    1.2688642    2.4475702 
        13.5   -3.1841831    1.2732462    2.4286836 
       13.51   -3.1843841    1.2786819    2.4085572 
       13.52   -3.1844494      1.27768    2.4216744 
       13.53   -3.1846081    1.2673883    2.4792245 
       13.54   -3.1843386    1.2578427    2.5349153 
       13.55   -3.1841902    1.2560785    2.5542556 
       13.56   -3.1839933    1.2616791    2.5396133 
       13.57   -3.1838602    1.2677063    2.5243016 
       13.58   -3.1836208    1.2648302    2.5524669 
       13.59   -3.1837669    1.2515535    2.6295642 
        13.6   -3.1837637    1.2352352    2.7202087 
       13.61   -3.1836265    1.2254197    2.7779248 
       13.62   -3.1836849    1.2271399    2.7782782 
       13.63   -3.1837503     1.236665    2.7392377 
       13.64    -3.183869    1.2475228    2.6918887 
       13.65   -3.1838861    1.2549506    2.6594949 
       13.66   -3.1839933    1.2576213    2.6483505 
       13.67   -3.1841452    1.2573175    2.6506135 
       13.68   -3.1841365    1.2554227      2.66054 
       13.69   -3.1839834    1.2511263    2.6819314 
        13.7   -3.1838772    1.2449237    2.7124718 
       13.71   -3.1839524    1.2393388     2.740368 
       13.72   -3.1838832    1.2366609    2.7548148 
       13.73   -3.1839857     1.239516    2.7427899 
       13.74   -3.1839265    1.2438454    2.7227963 
       13.75   -3.1839031     1.243535    2.7218463 
       13.76   -3.1838355    1.2400386    2.7329417 
       13.77   -3.1836748    1.2404576    2.7236939 
       13.78   -3.1836645    1.2469855    2.6840977 
       13.79    -3.183808    1.2544435    2.6382036 
        13.8   -3.1839279    1.2607065    2.5970123 
       13.81   -3.1837209    1.2652412    2.5640738 
       13.82   -3.1835896    1.2665554     2.545676 
       13.83   -3.1833714    1.2649155    2.5404122 
       13.84   -3.1834667     1.265281    2.5246297 
       13.85   -3.1834683    1.2716535    2.4807388 
       13.86   -3.1835362    1.2833325    2.4125591 
       13.87   -3.1833192    1.2979349    2.3336266 
       13.88   -3.1833906    1.3118689    2.2620764 
       13.89   -3.1834495    1.3191493    2.2277215 
        13.9   -3.1833912    1.3152644    2.2520426 
       13.91   -3.1833991    1.2998851    2.3342302 
       13.92   -3.1832877    1.2821253    2.4296115 
       13.93    -3.183171    1.2700626    2.4975142 
       13.94   -3.1832991    1.2622118    2.5414232 
       13.95   -3.1835278    1.2567091    2.5693867 
       13.96   -3.1836656    1.2546527    2.5769381 
       13.97   -3.1834295    1.2593106    2.5507766 
       13.98   -3.1836887    1.2694564    2.4969794 
       13.99   -3.1836907    1.2775569    2.4528748 
          14     -3.18372    1.2803637    2.4345564 
       14.01   -3.1837237    1.2802747    2.4320078 
       14.02   -3.1837173     1.278979    2.4371263 
       14.03   -3.1837358    1.2771872    2.4465622 
       14.04   -3.1838205     1.273205    2.4680659 
       14.05   -3.1837505     1.265706    2.5074949 
       14.06   -3.1836989    1.2587451    2.5452037 
       14.07   -3.1837977    1.2555619    2.5647255 
       14.08   -3.1838092    1.2566998    2.5632361 
       14.09   -3.1836656    1.2607356    2.5481532 
        14.1   -3.1837127    1.2629394    2.5415475 
       14.11   -3.1838679    1.2598111    2.5595011 
       14.12    -3.184043    1.2545969    2.5863293 
       14.13   -3.1841506     1.253482    2.5926539 
       14.14   -3.1842801    1.2592975    2.5651529 
       14.15   -3.1844587    1.2686718    2.5205167 
       14.16   -3.1846154    1.2732204    2.4985997 
       14.17   -3.1844889    1.2696739    2.5152889 
       14.18   -3.1844876    1.2636261    2.5437802 
       14.19   -3.1845489    1.2615506    2.5538514 
        14.2   -3.1848003    1.2629157    2.5478626 
       14.21    -3.184726    1.2627289    2.5503949 
       14.22   -3.1847761    1.2585465    2.5726687 
       14.23   -3.1847299    1.2542855    2.5976401 
       14.24   -3.1844754    1.2523887    2.6138205 
       14.25   -3.1840729    1.2501646    2.6319227 
       14.26   -3.1842977    1.2455241    2.6582674 
       14.27   -3.1846491    1.2434664    2.6697458 
       14.28    -3.184698    1.2482995    2.6473965 
       14.29   -3.1846973    1.2555688     2.611807 
        14.3   -3.1847301    1.2603366     2.587057 
       14.31   -3.1844947    1.2616353     2.579374 
       14.32   -3.1843879    1.2597511     2.586502 
       14.33   -3.1844256    1.2572775    2.5956133 
       14.34   -3.1843344    1.2561909    2.5968566 
       14.35   -3.1842047    1.2590674    2.5784975 
       14.36   -3.1841935    1.2635151    2.5526694 
       14.37   -3.1841991    1.2637547     2.547787 
       14.38   -3.1842089    1.2586675    2.5703244 
       14.39   -3.1842323     1.249902    2.6119097 
        14.4   -3.1842148    1.2427291    2.6466244 
       14.41   -3.1843068    1.2432524    2.6449874 
       14.42   -3.1844399    1.2481207     2.621017 
       14.43   -3.1843377    1.2507478    2.6042025 
       14.44   -3.1844184    1.2528788    2.5863427 
       14.45   -3.1844393    1.2590697    2.5486523 
       14.46   -3.1845097    1.2648229    2.5125336 
       14.47   -3.1844392    1.2650551      2.50192 
       14.48   -3.1845374     1.262781    2.5022764 
       14.49    -3.184421    1.2631385    2.4896582 
        14.5   -3.1841698     1.267895    2.4553318 
       14.51    -3.184045    1.2764246    2.4028994 
       14.52   -3.1839661    1.2868696    2.3435751 
       14.53   -3.1840961    1.2960257     2.294776 
       14.54   -3.1840114    1.3002327    2.2761434 
       14.55   -3.1840917    1.2974988    2.2963341 
       14.56   -3.1841342     1.290146     2.343376 
       14.57   -3.1838442     1.280593    2.4036072 
       14.58    -3.183562    1.2701866    2.4671448 
       14.59   -3.1835711    1.2621073    2.5171017 
        14.6   -3.1838158    1.2589113    2.5409863 
       14.61   -3.1837671    1.2616351     2.535251 
       14.62   -3.1837369    1.2678902    2.5118578 
       14.63   -3.1837437    1.2697877    2.5075508 
       14.64   -3.1840674    1.2661093    2.5274537 
       14.65   -3.1840266    1.2652724    2.5340685 
       14.66   -3.1839396    1.2700597    2.5128427 
       14.67   -3.1839843    1.2791602     2.469392 
       14.68   -3.1838331    1.2895969    2.4198905 
       14.69   -3.1838486    1.2937717    2.4009348 
        14.7   -3.1836867    1.2871656    2.4358262 
       14.71   -3.1837171    1.2725087    2.5120827 
       14.72   -3.1838378    1.2535669    2.6100989 
       14.73   -3.1838242    1.2339751    2.7083343 
       14.74   -3.1837797    1.2236568    2.7567712 
       14.75   -3.1839676    1.2297785    2.7199519 
       14.76   -3.1839693    1.2504814    2.6083428 
       14.77   -3.1841951    1.2765286    2.4686258 
       14.78   -3.1842105    1.2943974    2.3691961 
       14.79   -3.1844376     1.297834    2.3425704 
        14.8   -3.1843359    1.2900132    2.3762624 
       14.81   -3.1842569    1.2795273      2.42874 
       14.82   -3.1843023    1.2702875    2.4784685 
       14.83   -3.1841362    1.2620089     2.523578 
       14.84   -3.1839645    1.2563223    2.5533519 
       14.85   -3.1840889    1.2553225    2.5556392 
       14.86   -3.1841347    1.2601191    2.5260801 
       14.87   -3.1840729    1.2684351    2.4773028 
       14.88   -3.1839682    1.2755187    2.4339935 
       14.89   -3.1840536    1.2764724    2.4202124 
        14.9   -3.1841548    1.2734202    2.4276215 
       14.91   -3.1840671    1.2739336    2.4228358 
       14.92   -3.1840892    1.2787324     2.402514 
       14.93   -3.1842058    1.2826767    2.3911646 
       14.94   -3.1843756    1.2788922    2.4208183 
[...]
       96.35   -3.1847483    1.2640272     2.598347 
       96.36   -3.1847681    1.2542882     2.647799 
       96.37   -3.1845914     1.240945    2.7147514 
       96.38   -3.1845208    1.2316092    2.7619091 
       96.39   -3.1844121    1.2320089     2.761471 
        96.4   -3.1843016    1.2421552    2.7126798 
       96.41   -3.1842095    1.2572358    2.6380816 
       96.42   -3.1843032    1.2708285    2.5679487 
       96.43   -3.1843521    1.2808266    2.5145206 
       96.44   -3.1845298    1.2868355    2.4820809 
       96.45   -3.1845447    1.2863021     2.484723 
       96.46   -3.1846318    1.2758649    2.5368804 
       96.47   -3.1846387    1.2575167     2.626204 
       96.48   -3.1844303     1.241945    2.6994989 
       96.49   -3.1843893    1.2400133    2.7035582 
        96.5   -3.1841374    1.2498442    2.6472011 
       96.51    -3.184096    1.2614034    2.5775481 
       96.52   -3.1841447    1.2714099    2.5131543 
       96.53   -3.1841568    1.2835215    2.4409106 
       96.54   -3.1840507    1.2955946    2.3730193 
       96.55    -3.184079    1.2989385    2.3497933 
       96.56   -3.1839183    1.2917117    2.3803822 
       96.57    -3.183829    1.2810233    2.4306016 
       96.58   -3.1837495     1.273946    2.4660105 
       96.59    -3.183695    1.2696045    2.4883923 
        96.6   -3.1836543    1.2679554    2.4980037 
       96.61   -3.1836132    1.2704378    2.4901504 
       96.62    -3.183571     1.269672    2.4989024 
       96.63   -3.1834441    1.2590344    2.5531752 
       96.64   -3.1835032    1.2446773    2.6222522 
       96.65   -3.1833886    1.2381834    2.6519903 
       96.66   -3.1833196    1.2404882     2.636614 
       96.67   -3.1831972    1.2460098    2.6020255 
       96.68   -3.1832236    1.2552086    2.5476461 
       96.69   -3.1831034    1.2685745    2.4730641 
        96.7   -3.1832449     1.284074    2.3886856 
       96.71   -3.1832651    1.2965224    2.3211208 
       96.72   -3.1831728    1.3011418    2.2944385 
       96.73   -3.1831786    1.2960561    2.3177953 
       96.74   -3.1832182    1.2817682    2.3874591 
       96.75   -3.1831729    1.2636749    2.4757774 
       96.76   -3.1833718    1.2498245    2.5419987 
       96.77   -3.1834506    1.2449552    2.5629305 
       96.78   -3.1833813    1.2484972    2.5414604 
       96.79   -3.1834697    1.2580424    2.4904245 
        96.8   -3.1836071     1.267821    2.4379913 
       96.81   -3.1837961    1.2766731    2.3905207 
       96.82   -3.1836222    1.2901093    2.3251504 
       96.83   -3.1836435    1.3052209    2.2554267 
       96.84    -3.183433    1.3114724    2.2307262 
       96.85   -3.1835153    1.3049351    2.2679303 
       96.86   -3.1833936    1.2917624    2.3374752 
       96.87   -3.1832056    1.2842886    2.3801906 
       96.88   -3.1835437    1.2855033    2.3795849 
       96.89   -3.1836145    1.2876867    2.3719808 
        96.9   -3.1838375    1.2861552    2.3796342 
       96.91   -3.1838486    1.2818149    2.4000173 
       96.92   -3.1836674    1.2758003    2.4267714 
       96.93   -3.1834982    1.2733813    2.4345835 
       96.94   -3.1836949    1.2784294    2.4057795 
       96.95   -3.1837166    1.2862871    2.3640385 
       96.96   -3.1837809    1.2911808    2.3375692 
       96.97   -3.1839491    1.2903404    2.3395966 
       96.98   -3.1838795    1.2858408     2.359999 
       96.99   -3.1841263    1.2818293     2.376768 
          97   -3.1840872    1.2834437    2.3660645 
       97.01   -3.1841468    1.2939096    2.3135371 
       97.02   -3.1841792     1.303797    2.2638038 
       97.03   -3.1841765    1.3068745    2.2481668 
       97.04   -3.1842537    1.3039402    2.2653625 
       97.05   -3.1842038    1.2950179    2.3157339 
       97.06   -3.1843988     1.281517    2.3904854 
       97.07   -3.1842487     1.267654    2.4679093 
       97.08   -3.1840899    1.2624961    2.5034048 
       97.09   -3.1840429    1.2701967    2.4775013 
        97.1   -3.1839448    1.2791569    2.4437776 
       97.11   -3.1839778    1.2810431    2.4422268 
       97.12     -3.18392     1.274528    2.4806746 
       97.13   -3.1839035    1.2627919    2.5440331 
       97.14   -3.1840832     1.251665    2.6043761 
       97.15   -3.1842929    1.2436894    2.6489225 
       97.16    -3.184153    1.2391202    2.6759457 
       97.17   -3.1841494    1.2401348    2.6751468 
       97.18   -3.1839907    1.2441668    2.6598835 
       97.19   -3.1837671    1.2422885    2.6708211 
        97.2   -3.1838534      1.23504    2.7045432 
       97.21   -3.1836778    1.2335063    2.7114261 
       97.22   -3.1837481    1.2387664    2.6853446 
       97.23   -3.1836313    1.2424183    2.6655707 
       97.24   -3.1835722    1.2400591    2.6725354 
       97.25   -3.1838126    1.2325439    2.7005896 
       97.26   -3.1840536     1.231026    2.6982889 
       97.27   -3.1839737    1.2409081    2.6413789 
       97.28   -3.1842235     1.254298    2.5662712 
       97.29   -3.1842533    1.2615499    2.5210003 
        97.3   -3.1843667    1.2594732    2.5221353 
       97.31   -3.1843414    1.2543503    2.5424383 
       97.32   -3.1841875    1.2541338    2.5456455 
       97.33   -3.1840713    1.2584964    2.5330257 
       97.34   -3.1840377    1.2582313    2.5463272 
       97.35   -3.1839762    1.2490803    2.6045878 
       97.36   -3.1841313    1.2369801    2.6786501 
       97.37   -3.1840865    1.2271131    2.7417302 
       97.38   -3.1839748    1.2219256    2.7782868 
       97.39   -3.1839804     1.223875    2.7744222 
        97.4   -3.1839394    1.2328532    2.7307185 
       97.41   -3.1837937    1.2455456    2.6643775 
       97.42   -3.1837773    1.2585748    2.5940021 
       97.43   -3.1836133    1.2698236    2.5338956 
       97.44   -3.1836836    1.2731943    2.5137746 
       97.45   -3.1838337    1.2644006    2.5537869 
       97.46   -3.1838047     1.246986    2.6362508 
       97.47   -3.1837986    1.2291705    2.7192153 
       97.48   -3.1840451    1.2225656     2.745809 
       97.49   -3.1841103    1.2324122    2.6912611 
        97.5   -3.1843318    1.2533232    2.5808824 
       97.51    -3.184318    1.2755617    2.4637343 
       97.52   -3.1843205    1.2894172    2.3880922 
       97.53   -3.1841929    1.2908699    2.3756341 
       97.54   -3.1840952    1.2817922    2.4182345 
       97.55   -3.1842984    1.2678927    2.4881032 
       97.56   -3.1842926    1.2553726     2.555657 
       97.57    -3.184214     1.245912    2.6106079 
       97.58   -3.1841751    1.2375504    2.6594526 
       97.59   -3.1841669    1.2315217    2.6952934 
        97.6   -3.1842738    1.2309826    2.7031207 
       97.61   -3.1842779    1.2344936     2.689615 
       97.62   -3.1841867    1.2395827    2.6667939 
       97.63   -3.1843129    1.2478941     2.628843 
       97.64   -3.1841187    1.2535954    2.6036114 
       97.65   -3.1838932    1.2522057    2.6105211 
       97.66   -3.1838285    1.2479874    2.6290381 
       97.67   -3.1837459    1.2458356     2.635503 
       97.68   -3.1837702     1.250696     2.607187 
       97.69   -3.1837981    1.2596732    2.5591265 
        97.7    -3.183678    1.2626101    2.5397151 
       97.71   -3.1833712    1.2592802    2.5520786 
       97.72    -3.183312    1.2586679    2.5558438 
       97.73   -3.1833998    1.2604224    2.5515132 
       97.74   -3.1835559    1.2593467    2.5610543 
       97.75   -3.1835497    1.2567075    2.5782989 
       97.76   -3.1833983     1.253251    2.5984065 
       97.77    -3.183312    1.2481218    2.6228298 
       97.78   -3.1833779    1.2446027    2.6357041 
       97.79   -3.1831287     1.242734     2.637537 
        97.8   -3.1829589    1.2407295    2.6363092 
       97.81   -3.1833655    1.2422721     2.616268 
       97.82   -3.1833876    1.2463161    2.5848705 
       97.83   -3.1833911    1.2481626    2.5634269 
       97.84   -3.1835289    1.2494697    2.5449424 
       97.85   -3.1836511    1.2544807    2.5110753 
       97.86   -3.1837917    1.2619881    2.4677709 
       97.87   -3.1839988    1.2677582     2.435331 
       97.88   -3.1840168     1.266869    2.4374772 
       97.89   -3.1841646    1.2580314    2.4793284 
        97.9   -3.1843139    1.2461061    2.5371637 
       97.91   -3.1841707    1.2363356    2.5840946 
       97.92   -3.1839568      1.23552    2.5865116 
       97.93    -3.183972    1.2475728    2.5269991 
       97.94   -3.1841952    1.2634457    2.4494632 
       97.95   -3.1844467    1.2731544    2.4036433 
       97.96   -3.1843158    1.2752312    2.4004893 
       97.97    -3.184488    1.2689626    2.4424226 
       97.98   -3.1843349    1.2538256    2.5295809 
       97.99   -3.1842984    1.2361492     2.627692 
          98    -3.184295    1.2258648    2.6872025 
       98.01     -3.18433    1.2278885    2.6830898 
       98.02   -3.1842703    1.2408098    2.6226409 
       98.03   -3.1840243    1.2580707    2.5390069 
       98.04   -3.1842116    1.2727916    2.4664115 
       98.05   -3.1843503    1.2819915     2.422207 
       98.06   -3.1842696    1.2841142      2.41418 
       98.07   -3.1841598    1.2822197    2.4269566 
       98.08   -3.1840167    1.2809802    2.4377274 
       98.09    -3.184167    1.2808443    2.4428476 
        98.1   -3.1842021    1.2792618     2.454357 
       98.11   -3.1841043    1.2750191    2.4774139 
       98.12   -3.1840626    1.2722314    2.4923681 
       98.13   -3.1838077    1.2742456    2.4838967 
       98.14   -3.1837568    1.2788042    2.4618187 
       98.15   -3.1838476    1.2819834    2.4453533 
       98.16   -3.1840523    1.2806403    2.4500545 
       98.17   -3.1840786    1.2739935    2.4798352 
       98.18   -3.1842234    1.2693925    2.5003206 
       98.19   -3.1840948    1.2742057    2.4782656 
        98.2   -3.1841053    1.2820663    2.4408443 
       98.21   -3.1842037    1.2867196    2.4172728 
       98.22   -3.1842806     1.286839    2.4153317 
       98.23   -3.1843638    1.2819887    2.4375572 
       98.24   -3.1844346    1.2723307    2.4822475 
       98.25   -3.1843365    1.2646458    2.5174409 
       98.26   -3.1843869    1.2684823     2.498645 
       98.27   -3.1844684    1.2827123     2.431488 
       98.28   -3.1844261    1.2967058    2.3664249 
       98.29   -3.1842526    1.3017264    2.3461834 
        98.3    -3.184195    1.2951173    2.3841688 
       98.31    -3.184244    1.2801297    2.4646798 
       98.32   -3.1841453    1.2640186    2.5521662 
       98.33    -3.184123    1.2540102    2.6104703 
       98.34   -3.1842696    1.2512476    2.6330248 
       98.35   -3.1843169    1.2486306    2.6523979 
       98.36   -3.1845035    1.2430912    2.6829127 
       98.37   -3.1844634    1.2393266    2.7049602 
       98.38   -3.1847416    1.2392875    2.7096177 
       98.39   -3.1844939    1.2391974    2.7159353 
        98.4   -3.1842551    1.2346116    2.7433578 
       98.41    -3.184161    1.2240837    2.7968887 
       98.42   -3.1839509    1.2139081    2.8463783 
       98.43   -3.1839089    1.2115492    2.8553424 
       98.44    -3.183764    1.2198926    2.8103702 
       98.45   -3.1839038    1.2351537    2.7295723 
       98.46   -3.1839548    1.2484448    2.6568954 
       98.47   -3.1840991    1.2531173    2.6249152 
       98.48   -3.1840874       1.2524    2.6211931 
       98.49   -3.1842093    1.2521139    2.6196663 
        98.5   -3.1842212    1.2505654    2.6283455 
       98.51   -3.1843652    1.2420788    2.6716065 
       98.52    -3.184487    1.2301784    2.7321989 
       98.53   -3.1845098    1.2233674    2.7696257 
       98.54    -3.184386     1.221889     2.780418 
       98.55    -3.184519    1.2240034     2.770949 
       98.56   -3.1844819    1.2319522    2.7329543 
       98.57   -3.1843496    1.2442779    2.6746847 
       98.58    -3.184322     1.255703    2.6214656 
       98.59   -3.1844008    1.2610698    2.5974756 
        98.6   -3.1841631    1.2583801     2.611652 
       98.61   -3.1842703    1.2505918    2.6475416 
       98.62    -3.184349    1.2451798    2.6700738 
       98.63   -3.1841767    1.2457974    2.6621988 
       98.64   -3.1841092    1.2496681    2.6365311 
       98.65   -3.1841912    1.2530381    2.6116561 
       98.66   -3.1843182    1.2556272    2.5906861 
       98.67   -3.1842727    1.2605771    2.5611959 
       98.68   -3.1844189    1.2684945    2.5210857 
       98.69   -3.1846305    1.2756611    2.4883556 
        98.7   -3.1847295    1.2783087    2.4808565 
       98.71   -3.1847135     1.275415     2.502968 
       98.72   -3.1845315    1.2673298    2.5520073 
       98.73    -3.184444     1.256487    2.6149267 
       98.74   -3.1843211    1.2483398     2.665951 
       98.75   -3.1841441    1.2452431     2.693406 
       98.76   -3.1839895    1.2439266    2.7110464 
       98.77   -3.1839676    1.2405132    2.7351299 
       98.78   -3.1838575    1.2355878    2.7613618 
       98.79   -3.1839738    1.2352912     2.759556 
        98.8   -3.1838334    1.2441969    2.7095932 
       98.81    -3.183834    1.2597723     2.624984 
       98.82   -3.1839802    1.2715098     2.557095 
       98.83   -3.1840789    1.2748887     2.530268 
       98.84   -3.1839521    1.2734764    2.5303322 
       98.85   -3.1840023    1.2685972    2.5500936 
       98.86   -3.1840809    1.2595437    2.5920209 
       98.87   -3.1838922    1.2458648    2.6570702 
       98.88   -3.1841206    1.2316888    2.7231639 
       98.89   -3.1844111    1.2242436    2.7557987 
        98.9   -3.1843097    1.2253263    2.7454967 
       98.91   -3.1842223    1.2362191    2.6866315 
       98.92   -3.1841505      1.25045    2.6109179 
       98.93   -3.1840147    1.2584776       2.5642 
       98.94   -3.1838954      1.26255     2.538803 
       98.95   -3.1838607    1.2658391    2.5210307 
       98.96   -3.1839846    1.2655926    2.5218485 
       98.97   -3.1838085    1.2635686    2.5323514 
       98.98   -3.1837769    1.2649324    2.5274253 
       98.99   -3.1836283    1.2684726    2.5127091 
          99   -3.1838451    1.2690739    2.5114141 
       99.01   -3.1839889     1.263745    2.5383911 
       99.02   -3.1841292    1.2567281     2.573889 
       99.03   -3.1844192    1.2554563    2.5827697 
       99.04   -3.1843243    1.2604988    2.5618233 
       99.05   -3.1843335    1.2675906    2.5293331 
       99.06   -3.1842788    1.2726185     2.505342 
       99.07    -3.184156    1.2743625    2.4970673 
       99.08    -3.184309    1.2739962    2.4999056 
       99.09   -3.1842709    1.2717408    2.5138807 
        99.1   -3.1843748    1.2673829    2.5389132 
       99.11   -3.1843503    1.2617736    2.5703758 
       99.12   -3.1844192     1.258038     2.592245 
       99.13   -3.1844737    1.2593709    2.5889561 
       99.14   -3.1843685    1.2665101    2.5572825 
       99.15   -3.1844524    1.2754724    2.5159071 
       99.16   -3.1843455    1.2794516    2.4976732 
       99.17   -3.1842916    1.2758835    2.5142931 
       99.18   -3.1841976    1.2689955    2.5459931 
       99.19   -3.1841403    1.2651087    2.5629851 
        99.2   -3.1840133     1.266401    2.5553555 
       99.21   -3.1842307    1.2684825      2.54254 
       99.22   -3.1842832     1.267621    2.5425463 
       99.23   -3.1841995     1.264952     2.550271 
       99.24   -3.1840987    1.2618125    2.5589915 
       99.25   -3.1840586    1.2598299    2.5611041 
       99.26   -3.1841302    1.2602756    2.5511048 
       99.27   -3.1840583    1.2629636    2.5306842 
       99.28   -3.1839378    1.2683355    2.4984875 
       99.29   -3.1839575    1.2759748    2.4573756 
        99.3   -3.1840116    1.2825906    2.4238382 
       99.31   -3.1840773     1.284056    2.4173908 
       99.32   -3.1840641    1.2800676    2.4394105 
       99.33   -3.1840816    1.2728183    2.4788155 
       99.34   -3.1841429    1.2621557    2.5346167 
       99.35    -3.184265    1.2489054    2.6013165 
       99.36   -3.1842361     1.238307    2.6539809 
       99.37   -3.1840539    1.2383279    2.6561095 
       99.38   -3.1838493    1.2488391    2.6092586 
       99.39   -3.1837201    1.2564328    2.5748857 
        99.4   -3.1837849    1.2566263    2.5742891 
       99.41   -3.1839449    1.2546536    2.5839697 
       99.42   -3.1839472    1.2549738    2.5834407 
       99.43   -3.1840474    1.2570706    2.5745939 
       99.44   -3.1840027    1.2598141    2.5646908 
       99.45   -3.1842015    1.2588386    2.5750135 
       99.46   -3.1842072    1.2490781     2.629559 
       99.47   -3.1843475     1.235563    2.7033976 
       99.48   -3.1844968    1.2267717    2.7545929 
       99.49   -3.1845453    1.2268552     2.761139 
        99.5   -3.1845557      1.23193    2.7391774 
       99.51   -3.1845245    1.2369423    2.7122561 
       99.52   -3.1844918     1.243921    2.6728248 
       99.53   -3.1844465     1.255945    2.6089112 
       99.54   -3.1844426    1.2687435    2.5421567 
       99.55   -3.1845014    1.2745208     2.510865 
       99.56   -3.1843946    1.2690536    2.5365283 
       99.57   -3.1841912    1.2551899    2.6056416 
       99.58    -3.184039    1.2396678    2.6846785 
       99.59   -3.1842169    1.2284046    2.7429584 
        99.6   -3.1840667    1.2250957    2.7626069 
       99.61   -3.1842651    1.2285116    2.7471602 
       99.62   -3.1843221    1.2373194    2.7041868 
       99.63   -3.1842122    1.2491345    2.6460318 
       99.64   -3.1843258    1.2585944    2.5975524 
       99.65   -3.1841279    1.2612861    2.5803593 
       99.66   -3.1840044     1.257708    2.5918909 
       99.67   -3.1838725    1.2519611     2.613317 
       99.68   -3.1838361    1.2509711    2.6131901 
       99.69   -3.1838737    1.2576715    2.5797181 
        99.7   -3.1839991    1.2633047    2.5538408 
       99.71   -3.1840335    1.2620387    2.5633552 
       99.72   -3.1841382    1.2563016    2.5965443 
       99.73   -3.1840694    1.2501213    2.6329045 
       99.74   -3.1841167    1.2465135    2.6550852 
       99.75   -3.1841915    1.2477224     2.651079 
       99.76   -3.1839903    1.2552229    2.6153056 
       99.77    -3.184091     1.266386    2.5614468 
       99.78    -3.184128    1.2734538    2.5276534 
       99.79   -3.1840621    1.2721511    2.5339509 
        99.8   -3.1841246    1.2679574     2.553986 
       99.81   -3.1840134    1.2695711    2.5474311 
       99.82   -3.1843608    1.2788076    2.5052174 
       99.83   -3.1843577    1.2884381    2.4631473 
       99.84   -3.1845389     1.290719    2.4574511 
       99.85   -3.1845278    1.2848995    2.4927838 
       99.86    -3.184523    1.2762987    2.5435923 
       99.87   -3.1847592    1.2698898    2.5848336 
       99.88   -3.1846643    1.2659415    2.6141553 
       99.89   -3.1849639    1.2611706    2.6438981 
        99.9   -3.1849879    1.2527835    2.6866709 
       99.91    -3.185062    1.2445007    2.7240395 
       99.92   -3.1848858     1.243547    2.7233148 
       99.93   -3.1847632    1.2504554    2.6822623 
       99.94   -3.1844368    1.2610522    2.6228097 
       99.95   -3.1844549    1.2712378    2.5665834 
       99.96   -3.1845838    1.2744302    2.5464493 
       99.97    -3.184734    1.2680721    2.5748663 
       99.98   -3.1848888    1.2557424    2.6341775 
       99.99   -3.1847325    1.2422101    2.6997726 
         100   -3.1847248     1.232063    2.7457799 
Loop time of 92.8538 on 3 procs for 100000 steps with 1000 atoms

Pair  time (%) = 68.8273 (74.1244)
Neigh time (%) = 0.746182 (0.803609)
Comm  time (%) = 21.1052 (22.7295)
Outpt time (%) = 0.236042 (0.254208)
Other time (%) = 1.93906 (2.08829)

Nlocal:    333.333 ave 340 max 327 min
Histogram: 1 0 0 0 1 0 0 0 0 1
Nghost:    4377.33 ave 4402 max 4359 min
Histogram: 1 0 1 0 0 0 0 0 0 1
Neighs:    69695.3 ave 72819 max 64715 min
Histogram: 1 0 0 0 0 0 0 0 1 1

Total # of neighbors = 209086
Ave neighs/atom = 209.086
Neighbor list builds = 305
Dangerous builds = 0
